 updated model

1250 atoms

3 atom types

-14.142135 14.142135 xlo xhi
-14.142135 14.142135 ylo yhi
-14.142135 14.142135 zlo zhi

Masses

1 91.22
2 63.55
3 26.98

Atoms

1 3 -9.629204 -6.133827 -10.60686
2 2 -2.862202 -11.56991 -10.01839
3 2 -11.91059 -8.565678 -6.9679
4 2 -11.74997 -2.74871 7.698376
5 1 11.8311 -5.151822 -3.751997
6 1 -7.704288 13.90152 9.249852
7 3 -13.60053 -13.98718 -2.666403
8 2 9.607226 -11.80848 -13.27132
9 1 -9.240818 13.74566 -13.11824
10 1 -3.362152 -11.79215 -1.292365
11 1 -6.854754 -11.07165 -5.403497
12 1 -7.255749 -7.907034 -9.696777
13 1 -6.07554 -7.980889 -12.41006
14 3 -2.017065 -10.11815 11.28971
15 2 -5.072287 11.5555 -11.98628
16 2 -3.344203 -5.510115 9.837762
17 1 -7.558459 -13.32498 -10.46513
18 1 -6.425325 12.25555 -9.70154
19 3 2.005589 -10.89395 -9.981191
20 3 5.392566 -13.91129 10.02103
21 2 -3.851849 8.294905 13.86889
22 2 5.169927 -10.10818 2.349539
23 1 4.953659 -10.75394 -11.11765
24 1 1.024326 6.726922 -9.814204
25 1 -4.485644 -10.48847 12.89024
26 3 2.390969 -11.21751 12.90628
27 2 9.926177 10.07269 13.7911
28 1 6.753839 -9.410986 -13.36382
29 1 7.613614 -12.89126 -0.8484021
30 1 6.092147 -14.02292 -10.03481
31 3 11.49528 -12.0249 -11.69323
32 2 -8.849065 -12.34721 13.1982
33 1 -12.47336 -11.85458 9.542743
34 1 -7.223025 -10.42692 -13.99256
35 1 6.176846 9.995786 -1.459931
36 2 13.79718 -4.853467 13.77232
37 1 9.67022 -1.543517 11.94971
38 1 -8.96889 -3.168747 -10.57052
39 1 -9.054292 -4.947081 -7.966186
40 1 13.51346 12.3663 -7.615069
41 2 -10.08962 -10.08427 -14.09423
42 2 -6.996865 -0.5338991 12.60537
43 1 -12.15259 -6.289389 -9.009246
44 1 -6.226227 -2.885081 13.54516
45 1 -7.376682 -10.64957 -8.323992
46 3 -9.537259 -0.7465795 -11.81726
47 2 -4.167336 -7.286736 8.67796
48 2 0.9250526 12.62379 13.47064
49 2 13.00104 -11.04958 10.73235
50 2 -8.155918 -2.301215 -8.150017
51 1 -4.72682 12.46753 5.289376
52 1 -5.742651 -0.1240839 -5.163992
53 3 -1.604745 -0.7389595 -7.718843
54 2 1.362408 -0.1708623 -13.48464
55 2 9.477144 -6.706927 -7.364316
56 2 -5.84375 4.835346 -10.04043
57 1 3.543193 -9.055425 -8.618756
58 1 2.199785 -8.344613 12.84539
59 1 0.8368796 -6.319921 11.10593
60 3 7.729348 -9.46146 -10.57738
61 2 8.66017 -8.711819 -6.042924
62 2 2.110427 -7.161494 -7.107297
63 2 12.54167 -7.806468 -11.82441
64 1 3.945709 -4.505654 -12.40645
65 1 -0.1094386 -2.006719 -11.28942
66 1 7.230319 -6.417089 -9.137167
67 1 12.48311 -4.266519 -10.91403
68 3 2.064158 -1.703342 12.81159
69 3 -9.021511 -7.657745 8.673494
70 2 -10.94746 -13.03657 13.89172
71 1 -10.90476 -6.4299 -6.059417
72 1 9.347222 -4.135899 -5.952684
73 1 13.85302 1.383875 12.51738
74 1 8.14954 -6.915006 -12.18824
75 3 -11.74866 -0.7114434 6.292593
76 2 -9.166877 -7.450806 11.24871
77 1 9.789793 0.03529416 -13.67701
78 1 -10.51643 -0.6519282 9.351612
79 1 -11.86884 -3.878627 -11.02052
80 3 11.08218 1.890299 -11.97282
81 2 -4.655415 -0.4033738 13.31255
82 2 8.441089 -2.56276 -14.00532
83 2 6.935233 -0.7783746 10.54254
84 1 -12.78966 12.75751 -5.063973
85 1 -0.568671 -2.294449 13.97416
86 1 -4.635601 -10.87172 -12.26934
87 1 0.4420921 0.7042229 11.51509
88 1 2.602788 -3.347944 -10.1355
89 3 -9.333221 8.379262 11.14164
90 2 2.740782 -0.9213765 -8.62339
91 1 1.090663 0.2818947 -6.373126
92 1 5.152337 -1.535044 -11.02528
93 1 -0.4819846 2.142277 -4.155769
94 1 13.89492 6.82099 12.28362
95 1 2.656163 5.123538 -12.91393
96 1 4.900726 -9.433791 12.2255
97 3 13.13232 -7.455581 14.13316
98 2 -13.90508 -2.334285 13.40623
99 2 11.01437 -1.697392 -0.9145543
100 2 1.066871 11.32581 8.1632
101 2 3.943981 10.2211 -11.99943
102 1 1.751929 9.290041 -8.101727
103 2 -12.47411 7.017494 -10.59091
104 1 -12.14574 -6.973536 13.74342
105 1 14.13498 5.028366 -6.416788
106 3 -3.471207 -2.592476 13.17683
107 2 -7.584469 -1.205639 -13.26807
108 2 11.43446 5.727591 9.96068
109 2 -12.1622 -4.073853 -13.99004
110 1 -13.1453 -1.111343 -4.815506
111 1 -5.604285 6.091428 -7.025289
112 1 -7.29948 6.869891 -9.406219
113 2 -7.928372 9.615479 -9.654625
114 2 -12.67312 -0.043527573 13.85289
115 1 -13.0482 4.065392 12.22666
116 1 -7.810252 4.535303 -5.62115
117 1 -11.20355 0.7030662 -3.237396
118 1 -4.453744 -0.9813237 10.6179
119 3 -6.142192 3.231892 -7.869241
120 2 -7.108701 -14.01252 13.37321
121 2 -5.377038 3.58826 -13.06317
122 1 -4.418374 1.628026 -11.24306
123 1 -3.843432 1.221257 -8.401796
124 1 -3.939234 7.108336 -9.876329
125 1 -2.466351 -0.3071028 -12.87315
126 3 4.125953 1.979601 7.735708
127 1 10.96618 -1.849995 -11.23909
128 1 5.867276 8.997895 -6.610519
129 1 -0.8591341 -7.000825 -6.786226
130 1 5.039635 13.3894 12.88576
131 3 6.284386 11.54867 -11.68678
132 3 8.932433 6.113844 -12.99923
133 2 8.080815 5.047769 -10.82972
134 2 4.24971 0.6726006 -9.681337
135 2 7.361625 2.147708 -14.05529
136 1 7.829283 4.136695 -0.6292237
137 1 6.320284 5.695865 -8.501074
138 1 6.563981 4.130033 12.45008
139 3 -9.724497 3.185431 12.85801
140 3 10.90081 4.986104 -6.068197
141 2 14.07139 -3.25826 -12.74772
142 2 9.408407 5.561914 8.244313
143 1 6.631519 -0.5536793 -1.474449
144 1 -13.17538 5.296877 -0.5096207
145 1 12.6299 10.42136 6.648394
146 1 -11.27727 -2.573862 -8.320561
147 3 13.43346 -13.75719 -13.80239
148 1 -11.91122 2.593034 -13.62342
149 1 -8.866708 4.354716 -8.663143
150 1 12.77996 8.679062 14.11188
151 1 -7.673915 -5.504261 -12.78588
152 1 -9.806345 -12.56488 -5.715886
153 1 14.11485 5.572614 9.393906
154 2 -7.028316 -10.58635 -11.11672
155 2 -9.224098 -12.25032 10.59435
156 2 -8.8661 13.77356 -7.549292
157 1 -4.540465 -14.05496 -11.26838
158 1 -7.232868 2.645687 -10.73466
159 3 2.991547 8.011417 -5.504578
160 2 -0.6977752 9.992953 -3.208628
161 1 -2.727126 3.960265 -3.552267
162 1 0.6136533 0.6991314 -9.229
163 3 -1.344795 8.68862 13.7612
164 3 -1.736839 -13.90251 -10.17583
165 2 -0.8804453 8.844028 11.19465
166 1 7.851322 9.289776 12.03568
167 1 -10.1015 8.093424 -9.420697
168 1 2.573519 -13.19608 9.468144
169 1 3.049532 -13.38471 -10.93706
170 3 -1.170027 8.146125 -11.02622
171 1 10.88968 1.477899 12.12181
172 3 -10.04439 1.97043 -7.468466
173 3 -14.0351 7.649831 7.319352
174 2 6.370458 8.081638 8.725211
175 2 8.170382 -11.00399 13.38641
176 2 -5.102158 5.696634 10.5512
177 1 10.37758 8.406713 -12.48769
178 3 -9.418601 -9.810163 -5.170939
179 2 -11.60439 -13.57972 11.40857
180 1 -9.561217 12.57972 -5.2034
181 1 12.28882 -13.80542 -4.396649
182 1 -8.73203 9.268865 13.56047
183 1 -11.01846 10.73826 11.47877
184 1 -12.97959 10.45439 -13.94427
185 3 -10.76782 9.592811 -12.59783
186 2 -8.579469 -9.011761 -11.93752
187 2 -8.801181 -10.15662 12.15948
188 1 -7.041696 -9.022543 10.63354
189 1 -7.209921 0.060632415 9.783199
190 2 -5.490088 2.901043 -5.431005
191 2 -10.59258 10.53839 -10.30927
192 1 -8.047451 11.19604 -7.504467
193 1 -0.9023712 -7.877185 12.80481
194 1 -11.12085 -8.406919 -11.87061
195 2 -0.4135865 11.28804 -5.291889
196 2 -6.747568 -12.78193 -12.9457
197 2 3.005645 7.894135 -13.60395
198 1 -1.414978 5.348254 -10.56303
199 1 8.028792 1.70819 11.40429
200 3 3.500443 11.68307 -2.247962
201 3 9.771045 -7.820297 -9.59685
202 2 7.920582 9.922901 -10.66875
203 1 4.982727 7.457996 6.493011
204 1 3.099533 12.31404 -13.30397
205 1 7.813237 -13.57403 13.40801
206 2 8.115873 7.498856 -11.01238
207 2 -7.166189 6.980478 13.85209
208 2 -13.92391 -10.44434 -8.880685
209 2 -13.33818 -9.187223 9.35404
210 2 10.12047 -12.75628 -6.088812
211 2 4.600178 -10.75009 -6.593812
212 3 13.03765 9.181837 -3.081583
213 3 -10.88109 -13.89114 -3.221639
214 2 -12.4748 -4.282269 -1.273703
215 1 12.47836 13.5831 -11.05936
216 3 -9.5351 -12.40885 -8.609515
217 2 -13.7042 -4.439786 -3.540828
218 2 -2.960485 9.883921 -7.231046
219 1 -3.452739 11.73492 -9.513005
220 3 5.506471 -7.985192 -10.87352
221 2 -7.180752 -5.300899 -10.12151
222 2 -1.255521 7.429755 -1.721418
223 1 0.3953153 13.64228 -12.22459
224 1 3.256393 -7.95494 0.1263782
225 1 6.245225 -10.75371 -2.541262
226 2 -4.434228 -7.395939 -8.795566
227 2 0.7483799 13.96987 -9.130911
228 2 -0.2776097 9.913408 -9.778072
229 1 0.8531166 -11.5794 -4.851735
230 1 8.705318 -13.59054 10.31267
231 3 7.351723 -12.15406 -12.13173
232 3 11.09756 -12.62304 -8.980414
233 2 4.284606 12.50908 -10.8724
234 1 -3.746659 -7.857182 -5.910203
235 1 0.1704872 13.9507 -6.069844
236 1 8.293163 10.39993 -7.845665
237 2 -13.09765 10.06723 -4.280826
238 2 -2.005493 -11.98908 13.13671
239 1 13.9888 -13.12378 -9.084174
240 1 7.300498 -5.360487 3.402641
241 1 -11.0429 11.10969 -7.70296
242 3 -9.511465 -0.4026552 -8.974408
243 2 -12.82665 -5.03657 4.836868
244 2 -10.47101 -1.836013 -4.047801
245 2 -8.282315 -12.59972 -3.300923
246 1 -10.30756 9.60301 -5.156884
247 3 -13.68687 -8.595025 -10.53161
248 2 -4.988582 -9.530614 -9.763736
249 1 11.05724 10.9968 -1.336726
250 1 12.63769 -11.33739 -6.8777
251 2 -1.923748 -0.036211859 -10.20126
252 2 -2.412181 -6.760716 -13.69569
253 2 -3.761054 -13.92202 -8.580956
254 2 -8.759211 -4.930828 -2.141668
255 1 -5.850554 -3.298183 -8.870742
256 1 -1.005583 2.366336 -7.063002
257 1 -1.498811 -9.452068 -2.519799
258 3 1.451613 10.0446 1.020041
259 3 5.003357 -11.8973 -8.608851
260 2 9.405458 -11.29266 -10.65151
261 2 0.2744326 -12.49258 -10.70543
262 2 -11.70446 -9.159267 -9.176757
263 1 0.9278872 -5.493349 -5.099559
264 1 0.5380027 -9.504799 -7.678555
265 1 11.99885 -9.781441 -9.829175
266 1 -6.545171 -4.441125 4.621984
267 3 1.466128 -5.147257 -8.138112
268 2 5.277233 -2.687151 -5.64865
269 2 -12.28206 -12.13986 -1.631918
270 1 5.492377 -0.3505108 -7.346053
271 1 -3.353292 -4.656484 -6.948228
272 3 6.712571 -6.084604 0.3877403
273 2 12.07121 -5.539327 -13.13695
274 2 6.073185 -8.264602 -1.027061
275 2 -5.544762 -8.979607 -7.289562
276 2 -11.75334 -9.396647 -4.743152
277 1 11.63727 -8.400487 -6.752316
278 2 9.146631 -0.9476843 -1.975289
279 2 -14.12669 -13.55257 -6.354069
280 1 10.75647 4.75759 -11.0722
281 1 -9.866117 -4.450632 0.7806781
282 1 12.70359 -10.73976 -14.0237
283 1 13.48072 3.007155 -1.438675
284 1 12.25421 -11.19874 5.852256
285 1 14.08973 -1.448169 -7.462313
286 3 -12.16853 -1.686999 -12.90786
287 2 -10.50469 -5.620948 -12.8692
288 2 -7.840847 1.413377 -8.47239
289 2 -10.78947 -8.728505 12.34637
290 2 -7.564795 1.799286 -6.171154
291 1 -5.700016 -2.998255 -3.017997
292 3 6.754927 0.3982641 -9.857945
293 3 0.9345622 -2.734645 -6.31298
294 2 -9.108398 3.030714 -13.02058
295 2 -3.735683 -2.787622 -12.624
296 2 -3.903776 -1.625621 -7.408735
297 1 3.552979 -9.065928 -2.56622
298 1 1.630005 3.42073 -6.247517
299 1 -2.882062 0.8583497 -2.89843
300 2 -5.210293 -0.080978081 -2.697899
301 2 -0.7240942 -4.229701 -7.553904
302 1 3.478117 -4.529201 -6.289065
303 1 1.320668 -2.827971 -3.629747
304 1 5.873878 -0.4011634 -4.344781
305 3 -9.771132 -7.741162 1.532279
306 2 6.894135 -2.877797 12.30189
307 1 12.24068 2.66768 -5.089532
308 1 9.951385 6.023364 0.9005681
309 3 11.59442 -0.4502776 -8.808911
310 2 11.49463 -5.630219 -6.598674
311 2 10.6927 -6.482903 -11.46659
312 2 -11.46745 -1.128394 -10.56101
313 2 10.05217 -6.892454 -4.889999
314 1 -12.70389 -2.495438 0.7483099
315 1 5.927474 -6.536211 -2.91129
316 1 8.017851 4.84631 -5.943625
317 1 -12.03517 -9.480847 -1.864914
318 2 -8.321384 -2.914672 -3.676312
319 2 13.05677 -3.372746 -5.616997
320 1 13.08858 -0.3001837 -13.12026
321 1 -9.418175 -3.08908 -13.57748
322 1 3.984793 -0.074822888 -13.60664
323 3 -9.630305 2.354896 -4.830264
324 3 -10.80509 -0.4216212 -6.23262
325 2 -8.335981 -0.5530679 -6.708915
326 2 -0.8455375 10.76012 -7.683462
327 1 -12.85018 6.123949 2.522707
328 1 -4.798597 -13.44863 -4.753512
329 3 2.820951 2.499175 -8.787981
330 2 0.4267054 -2.34239 -8.599085
331 2 -3.423932 -1.866948 -5.143403
332 1 -10.8869 -4.556642 -3.566224
333 1 -3.302369 1.027172 -5.657825
334 1 0.042704172 1.825082 -1.387668
335 1 2.772453 13.62862 -4.644912
336 3 5.857208 9.072743 1.146082
337 2 6.700078 8.32821 -9.295948
338 2 -2.997701 7.364098 -7.056123
339 2 0.5114847 3.930647 -11.74219
340 1 -1.893547 -4.503984 -12.36165
341 1 8.340349 2.491885 -11.57223
342 3 12.22539 1.303896 0.3550328
343 2 6.579414 2.049358 -2.086356
344 1 5.243713 6.039616 -5.616689
345 1 3.155976 4.817846 -10.04623
346 1 11.10734 1.111256 -2.509885
347 2 2.066833 5.905958 -4.667333
348 2 7.460866 -0.6800917 -12.44639
349 1 -4.831728 8.808534 -5.318743
350 1 7.429365 11.04303 -4.665061
351 2 -8.72332 -0.1730668 -4.4727
352 2 9.676696 2.762167 -6.043519
353 1 -12.68081 12.90473 9.672751
354 1 5.677053 2.823289 -7.345184
355 1 2.270985 -12.21744 -7.501427
356 1 -5.360361 9.357005 -8.268407
357 3 -5.883473 9.425824 -11.01466
358 2 -7.808764 8.490801 -7.262012
359 2 9.548903 -13.31171 0.9695095
360 2 -7.715105 3.01674 4.86504
361 1 -5.342181 6.960426 -12.54384
362 1 -3.654387 4.219155 -8.84784
363 2 3.938046 8.211365 8.953466
364 2 -0.9483507 8.09884 -8.300138
365 2 -3.232213 -4.174126 -4.204015
366 2 -2.162693 9.578833 -5.124858
367 2 3.650876 10.89468 3.410014
368 1 0.4939538 7.043324 -13.00082
369 1 -0.8688855 5.443099 -7.4675
370 1 -5.619913 9.603358 -2.756667
371 2 12.2753 5.581621 -0.9453921
372 2 6.150058 11.43117 2.549019
373 2 -1.590597 5.96775 0.2300187
374 2 3.689631 4.635479 -7.433954
375 1 -10.35326 12.53559 2.193488
376 1 9.74415 3.665642 14.1019
377 1 5.559363 3.022823 -10.229
378 2 10.46533 1.585642 -9.524843
379 2 8.820151 12.87892 -0.5282642
380 1 9.810102 2.836155 1.542647
381 1 6.345122 12.94998 -2.089978
382 1 13.90025 4.766553 -10.43705
383 1 -8.390715 8.020125 -12.0502
384 1 -11.31983 11.61701 -2.538162
385 3 -10.33792 -11.2368 -3.115482
386 2 5.102548 -13.40032 -3.308142
387 2 -7.458887 -13.96817 -5.121794
388 2 -9.230887 6.702997 -6.978142
389 1 10.61845 7.128704 12.66978
390 1 13.18535 9.501586 -8.660108
391 1 -4.580335 -5.490861 -10.79049
392 1 12.99298 12.3282 0.8455432
393 2 -2.591524 9.283957 -9.397122
394 2 -2.745738 -13.90593 -6.479331
395 1 -13.3891 12.06607 3.339776
396 1 -9.443151 -7.625263 -3.31071
397 1 5.741978 5.908848 -11.37413
398 1 4.783582 10.31957 -9.333167
399 3 -1.166609 14.04183 13.63373
400 2 0.088371865 0.8358009 -11.7984
401 2 -1.392451 13.17295 -8.093245
402 2 -0.8082494 12.14127 -10.16086
403 2 1.164024 11.96854 -7.57558
404 1 -1.358471 11.31361 12.94178
405 1 -5.072851 11.98484 -6.421869
406 2 -0.9341842 4.812264 -13.49703
407 2 7.356089 -11.61862 -9.419136
408 1 -2.514119 -9.272758 -8.407219
409 1 0.8361701 -12.80395 0.098239735
410 1 1.747115 2.579164 13.87733
411 1 8.77439 3.709904 -8.634083
412 1 3.541577 11.04657 -6.373917
413 2 -1.49923 2.551059 -9.652163
414 2 7.954391 12.22249 -9.84454
415 2 -7.824903 -9.364718 1.112852
416 1 7.614264 -14.01276 -4.673259
417 1 3.460324 13.35716 -8.277861
418 1 8.612654 7.576981 -6.989369
419 1 -12.07761 7.577764 -6.631377
420 1 11.81641 6.584572 -8.345972
421 3 5.628023 -12.22466 1.254386
422 3 1.655906 10.53316 -4.272842
423 2 6.014858 1.05562 -12.14799
424 1 6.237092 12.40449 -7.319108
425 1 3.544167 7.770767 -11.04686
426 2 11.52284 -7.674622 2.99077
427 1 -6.368677 -13.65058 -7.559526
428 1 -11.68788 -11.59423 -10.12775
429 1 13.34901 8.424777 -5.857091
430 1 -5.031822 -6.340333 0.558617
431 2 -4.877038 8.12539 -0.8049815
432 2 -2.801897 -8.029131 4.99321
433 2 -2.005132 -6.882327 2.166993
434 1 -3.454448 11.34179 -3.72675
435 1 -3.41114 13.2297 2.579919
436 2 4.581639 -7.284372 -6.689993
437 1 -8.023412 -6.656234 -0.245575
438 1 -1.784902 13.93052 -0.2244967
439 1 3.919716 -4.296774 -3.338566
440 3 3.729162 -11.55509 -4.200336
441 3 3.454254 -8.359306 2.978943
442 2 9.64511 -4.694589 -12.86746
443 2 0.9381023 -8.544217 -1.149751
444 2 1.430974 10.10336 3.553093
445 1 3.993357 -12.11352 -1.185666
446 2 9.30281 13.6866 7.81969
447 2 5.459841 13.84492 0.3468646
448 2 14.11166 -9.641585 -3.762155
449 1 10.39116 7.947274 3.262135
450 1 0.50556 12.8656 -2.823275
451 1 4.568954 -5.34004 2.405401
452 1 9.592065 12.66028 -3.097759
453 2 5.631369 -7.972832 1.36774
454 1 -12.59101 11.13991 0.3812216
455 1 -13.05435 -11.97579 -4.348432
456 1 -7.02468 -13.79828 -0.6466554
457 2 -12.78522 -5.34897 0.8510757
458 2 8.520467 -5.42479 -3.526218
459 2 -9.963013 -10.09417 -7.555309
460 1 -6.372406 -8.257988 -4.284252
461 1 -4.462745 -6.538556 3.361816
462 1 -6.196536 -8.917796 -1.12783
463 3 -3.915847 -7.926762 -2.522432
464 2 7.648978 -1.729775 -6.075888
465 2 -10.71411 -9.145646 4.641614
466 1 0.6300478 -8.492157 -4.097818
467 1 -13.91293 -2.835256 5.876118
468 1 -6.227161 1.935386 -0.667162
469 1 -4.062185 -11.39042 -7.044937
470 1 -8.035377 -5.314227 -4.865571
471 3 13.08847 -0.7037619 -2.018257
472 2 -9.869477 -7.761672 -8.710384
473 2 8.367385 -10.20602 -4.13888
474 2 -13.26986 -7.191072 5.684638
475 1 -11.22406 -6.572639 -0.9713656
476 1 -3.767532 -10.40408 -4.138391
477 1 -6.141908 -5.948276 -2.318065
478 2 -1.274672 -3.562949 -5.235806
479 2 -2.569484 -2.376045 0.3100385
480 1 8.278513 0.9060592 -7.559877
481 1 7.904806 -3.189514 -11.42725
482 3 13.53229 1.429566 -7.391556
483 2 14.08815 -0.3154745 5.465219
484 2 12.96782 -1.09271 0.506577
485 2 6.604094 -4.237687 -4.549767
486 2 1.888979 -13.17146 3.219065
487 1 13.45289 -8.664854 -1.467922
488 1 -0.2561599 -7.20329 -12.04716
489 1 -10.30745 -3.452153 5.508346
490 1 4.105117 -5.038985 -0.5206096
491 3 6.518542 -6.098838 12.36584
492 2 -9.647802 -12.94253 -1.325468
493 2 13.29628 -2.560433 -3.503526
494 1 10.78142 -9.026449 -3.020227
495 1 9.007644 -7.50999 2.103267
496 1 9.056579 -6.898942 5.378703
497 1 12.39931 -10.33737 2.878801
498 3 -10.10928 -1.683566 1.581085
499 2 -9.102701 5.423852 -3.4002
500 2 -11.94081 -8.630697 0.708284
501 1 11.70089 -3.17959 -7.955435
502 3 -9.376199 -2.859219 -5.960099
503 1 -10.94706 4.606756 -6.1186
504 1 9.841901 -4.147125 -1.462153
505 1 -5.445279 7.98426 1.838764
506 1 -7.708674 -0.7373511 -1.98408
507 3 -1.063852 -0.9854801 -4.570606
508 3 -3.486972 6.325143 -1.481968
509 2 10.25895 -10.52873 -5.495624
510 2 1.935642 -13.01086 -2.658343
511 1 -4.180757 -1.302765 -10.25076
512 1 -0.4121598 -4.516823 2.631785
513 3 1.876275 -6.165692 3.08137
514 2 11.55172 -6.679094 -1.57625
515 1 0.1134273 4.870996 -1.853129
516 1 2.758825 -9.24584 -5.622204
517 1 -0.3823102 -1.212019 -1.282761
518 1 9.504724 -10.28872 -8.149103
519 2 2.128533 -0.091346025 -0.9637873
520 2 5.460999 1.341354 10.24524
521 1 10.68667 -2.224355 -3.709778
522 1 6.781171 -3.912887 -7.58509
523 1 8.834222 -7.128524 -1.112985
524 1 14.11306 -6.103589 -6.377284
525 1 6.642232 -3.703229 -1.568347
526 2 -10.57923 4.839301 2.00527
527 2 -12.74958 0.5581903 -11.85459
528 2 -14.08995 -7.290017 7.888587
529 2 6.015357 -5.679727 -11.48299
530 1 -0.094347462 -8.988801 7.431857
531 1 12.25044 -12.77893 1.281538
532 3 -5.214974 -11.92748 -9.616495
533 3 10.04412 -1.22794 -6.483564
534 2 -7.300065 -3.833882 -0.788381
535 1 8.834264 0.4796776 -4.562961
536 1 11.75755 4.358397 7.496804
537 3 -0.2734933 5.088528 -4.73847
538 3 -13.88888 -4.060131 -8.650087
539 3 -1.973109 0.4712815 2.720629
540 2 -5.019497 2.719993 -3.079107
541 2 -13.90745 3.757826 -3.878824
542 1 -9.737354 1.200097 5.05347
543 2 3.431956 1.292541 -6.933897
544 2 0.4742698 4.506588 0.8402332
545 2 -10.39584 6.857908 -4.733895
546 1 -6.263163 -2.932088 -6.020289
547 1 3.341029 8.369604 2.257662
548 2 3.622661 -1.643266 -4.193479
549 2 1.631552 6.317138 -7.149113
550 1 8.473669 -13.82331 -7.9407
551 1 4.164729 -5.946084 -9.133551
552 1 0.089600123 -1.377072 1.657086
553 2 2.830702 -0.6500703 3.469414
554 2 7.211557 1.798243 0.5874882
555 2 -0.4535764 9.577687 -0.7841576
556 1 1.641585 0.1595643 -3.522164
557 1 4.645607 1.01174 0.4714926
558 1 6.294023 2.55192 -4.63576
559 3 -6.163459 -0.4615976 -7.93884
560 2 6.914882 11.91811 0.4545726
561 2 -13.74174 6.827166 -8.621881
562 1 4.572074 9.758472 -3.868028
563 1 7.375937 13.88865 2.483887
564 1 9.640292 6.421642 -3.895608
565 1 9.992321 12.43537 -6.103045
566 2 -1.889903 -12.07478 -5.251106
567 2 11.58629 4.135766 -2.980971
568 1 -7.78531 7.654006 -4.713826
569 1 -10.40655 7.971998 -2.390295
570 2 -7.171829 4.276608 -2.858631
571 2 -1.700945 3.435576 1.394769
572 2 -4.491946 -13.85446 0.5417295
573 1 3.915704 7.377876 -8.170168
574 1 -2.641309 8.608601 0.5407966
575 1 -10.08985 5.55327 -0.5317308
576 1 -5.227863 5.721961 -3.922589
577 2 -1.987199 -14.10271 10.10196
578 2 -1.022189 5.702178 2.624929
579 1 8.762697 9.8631 0.5012925
580 1 0.070535704 8.234048 -5.778459
581 1 6.381447 11.98687 5.306253
582 2 -5.646173 5.740144 3.460465
583 2 3.229069 6.142859 4.54688
584 1 4.545807 6.937397 -2.843158
585 1 5.583189 6.486513 3.186132
586 1 -3.253323 9.617966 -12.21934
587 2 0.7071165 3.69785 -9.233719
588 2 1.427284 9.125306 -11.34499
589 2 7.82598 8.434278 -13.63323
590 1 -1.11765 11.35675 1.267445
591 1 4.608483 4.006819 -1.89169
592 1 5.674106 6.766263 10.9556
593 3 8.322739 10.36649 3.346608
594 2 9.16359 6.384408 -9.285027
595 1 10.22306 -9.327286 -12.33172
596 1 12.82406 6.263446 -3.818405
597 1 10.26869 9.48745 -4.36488
598 2 -8.468082 13.42045 -2.847425
599 2 -10.95791 -9.922591 2.370167
600 2 -12.94859 9.5246 -11.14316
601 2 -13.15498 10.32944 5.433652
602 1 13.82749 11.86619 -2.130051
603 1 -12.37661 0.5121943 -8.730292
604 3 -6.397221 12.38518 -3.888627
605 2 14.01626 -13.06026 7.302207
606 2 -11.34487 5.854647 -8.623033
607 2 -10.78615 11.05691 4.353701
608 2 -8.946116 9.635919 5.478193
609 1 -5.759484 -11.39292 0.8779249
610 3 2.666048 6.556098 10.22548
611 2 -1.759537 11.46778 -1.520109
612 2 -6.70699 11.96492 -1.371161
613 1 1.213473 12.62396 -0.06911432
614 1 -3.073904 10.23232 3.318444
615 1 -0.5753225 -9.96149 -10.72952
616 3 2.653466 5.971406 -0.9359388
617 3 -0.4249686 13.97856 2.590041
618 2 3.934733 4.098685 -4.695334
619 1 10.07723 12.46452 1.850206
620 1 -4.466323 13.67376 -1.980385
621 1 0.3467814 9.629386 5.963391
622 1 3.202976 11.8353 5.942867
623 2 14.03617 -13.71341 -0.3307196
624 2 -13.98468 -9.058221 -5.964023
625 2 -10.65902 -11.13779 0.1101857
626 1 -8.259189 12.41126 4.475158
627 3 1.465749 -10.72139 -1.78697
628 2 11.77544 -14.0364 -7.164925
629 1 7.676665 7.339516 -1.032701
630 1 9.369314 -13.87992 -10.78203
631 1 13.02915 -11.60263 -1.830949
632 3 -4.514495 -6.742245 6.13613
633 3 -2.293897 -9.159361 2.85073
634 3 -5.403883 12.53415 8.254428
635 2 -8.799859 -11.37339 1.906061
636 1 12.62084 11.41816 -4.887154
637 1 8.274993 -2.772763 9.556268
638 1 -12.08963 9.15562 3.067079
639 1 -8.277354 -5.309911 9.745393
640 3 1.4035 -5.859942 0.5186033
641 2 -10.16832 -11.3873 4.197934
642 2 -7.121932 10.35496 -5.216085
643 2 -6.784848 -7.445765 4.717149
644 1 -12.84199 -7.089488 -3.712112
645 1 -5.004372 1.219785 7.921103
646 1 -12.38472 -3.682834 -5.955194
647 3 3.013047 11.6162 12.00122
648 3 -4.551902 -12.55567 4.097955
649 3 -5.051951 -5.548198 -4.763415
650 2 -1.443903 -9.818806 -5.686512
651 2 -2.180989 -5.645411 4.52432
652 2 -2.890851 9.020288 -2.277836
653 1 5.805202 -9.116582 -4.925684
654 2 10.9848 9.847908 -6.989135
655 2 10.23723 -10.0609 13.3181
656 2 4.268791 -12.13943 3.341624
657 2 8.112538 -8.007399 -3.612369
658 1 5.68387 9.379449 4.192495
659 1 1.536482 -10.11495 4.747571
660 3 2.97703 8.849881 5.113465
661 1 5.740027 -4.209048 5.652825
662 1 2.653697 -10.76812 1.458842
663 1 5.004523 -13.35177 -6.137187
664 3 11.38694 9.821623 1.321701
665 2 4.988379 -10.02086 -0.027047705
666 1 -11.71919 13.97737 -0.1537005
667 1 13.85295 -7.74697 1.380253
668 1 11.13737 -5.016375 4.073807
669 2 -2.148858 -2.305393 2.691405
670 2 -12.55136 -11.64638 3.330853
671 1 12.18985 -8.965088 8.989942
672 1 -2.371133 6.979897 -4.24916
673 1 -12.08889 -1.420423 3.620432
674 3 -7.110309 -4.565647 1.737623
675 3 0.3309682 -11.98523 -13.53261
676 2 -8.700349 -2.975182 3.197313
677 1 -6.443192 -14.10078 2.619681
678 1 -1.978457 -10.67922 5.262816
679 3 -0.7312307 -4.099978 -0.156019
680 2 -8.157549 -10.03893 -2.917159
681 1 -1.188934 -7.029892 -0.6164366
682 1 1.365751 -5.968675 -2.2601
683 3 3.23519 -13.77949 1.175325
684 2 3.161379 -1.548671 -6.41935
685 2 -2.750381 -5.090285 0.9626842
686 2 8.652713 -9.926508 -1.722507
687 1 2.873122 -12.75829 5.876789
688 1 -0.7706074 -12.42606 -2.505519
689 3 10.3121 -6.898175 10.88544
690 1 2.726982 -3.487231 4.607472
691 1 5.122042 0.79425 3.434224
692 1 4.62832 -2.079544 0.736305
693 2 8.444048 -2.425046 0.178315
694 2 13.58822 -6.683463 3.82407
695 1 8.913898 -3.586878 5.489633
696 1 13.82907 -4.244505 2.664616
697 1 -12.19575 -11.38181 6.21979
698 3 -4.90057 -3.444473 -0.1421107
699 3 -11.51092 -4.115241 2.968127
700 1 7.573819 -9.937236 0.6863733
701 1 11.50326 -5.847377 0.903763
702 1 -11.75819 4.951429 -3.198042
703 1 -9.846104 -2.475238 -1.336146
704 1 -12.61186 1.955732 -5.671326
705 3 -7.137277 1.805417 -3.634382
706 2 -10.86596 0.9827232 2.406556
707 2 -10.83935 -6.437434 5.566164
708 1 -0.617361 2.642985 9.438763
709 1 -10.22765 1.867917 -10.65734
710 1 -7.259633 -1.666471 0.8835867
711 1 -4.799409 -0.575334 -0.26487
712 2 -4.274555 -0.672346 2.220886
713 2 -5.200657 4.441112 -1.412094
714 2 -2.126178 -13.06028 3.962888
715 1 -3.781543 -3.83748 5.779163
716 1 -4.830938 8.225777 4.514605
717 1 -0.2063196 -7.593012 4.598033
718 3 0.9357539 -1.948229 6.672842
719 2 5.056481 6.611786 0.048827212
720 1 -2.061353 -0.1932471 12.28963
721 1 -2.392264 0.553585 -0.050136223
722 1 -2.952609 -2.069966 -2.435308
723 3 4.435374 -2.804246 -8.283632
724 3 9.767777 -11.00633 1.83561
725 2 0.5963374 -1.62302 4.26363
726 2 10.8129 -2.087292 9.345594
727 2 -13.54501 0.6532488 -0.823025
728 1 1.808106 -3.110443 -0.7972981
729 3 7.156261 -1.288937 5.42576
730 2 -7.122271 -7.236648 2.293492
731 2 -9.409495 -0.4605981 7.003066
732 1 12.71145 4.249241 1.466321
733 3 -13.396 0.1754617 1.651391
734 2 11.53139 -2.363534 5.311095
735 2 -8.948062 -8.181851 5.704588
736 2 8.768786 1.560062 -1.214563
737 1 9.077277 3.344098 -3.355038
738 1 12.91644 7.346004 1.297084
739 2 -11.56153 6.962977 7.398091
740 2 -2.399465 12.07737 -6.24868
741 2 -12.11329 2.653914 -1.458477
742 2 -6.043504 3.908473 1.537133
743 1 -7.678151 11.20498 7.431578
744 1 -7.34241 7.035787 -1.824486
745 3 -0.8747894 -4.089873 -2.797628
746 2 -5.04106 6.126612 13.01523
747 2 -1.463514 -2.572054 4.932446
748 1 -3.265791 4.203489 -6.086257
749 3 3.437265 -6.859503 -4.481547
750 2 5.727241 3.765337 7.842565
751 2 -0.9256213 0.1768989 7.649521
752 1 3.036675 5.378724 1.748536
753 1 1.126607 7.846845 -2.937818
754 3 6.917796 5.272925 -3.212029
755 3 7.924989 -2.443794 -3.727037
756 1 7.301084 8.104472 -4.000516
757 1 -9.260121 2.768207 -1.976579
758 3 5.284918 3.788314 1.150699
759 2 5.623141 0.5431889 6.109405
760 2 11.01981 7.449509 -5.991495
761 2 -12.85393 9.399354 -2.094583
762 2 -8.451453 0.884548 0.3959548
763 1 3.492822 -0.7462612 6.138339
764 1 -13.26715 -1.276462 10.92611
765 3 -7.829925 12.18754 1.026079
766 2 -10.33529 2.895011 0.4435855
767 2 -8.832812 7.757595 0.2407296
768 1 9.899678 9.578428 5.634259
769 1 -11.33035 1.764284 7.527258
770 1 -7.987038 6.030259 2.13752
771 2 -10.43134 7.291773 1.796509
772 2 13.8801 7.429548 -1.562942
773 2 -2.479715 7.462209 2.959161
774 1 11.87265 -3.798299 7.668372
775 1 -12.23969 7.807386 10.01767
776 3 4.081214 -1.749862 -1.931979
777 2 -5.766798 6.068649 0.071538508
778 1 -2.575728 3.524569 -0.9273455
779 1 -3.768289 -0.8878395 4.689402
780 1 -1.549751 3.245434 3.907299
781 3 4.256862 1.05277 -2.184839
782 3 2.016031 3.211938 -3.280247
783 2 5.696251 2.800138 5.639896
784 2 1.064197 4.291218 3.336942
785 2 7.246388 9.721643 6.589226
786 2 -3.224739 5.606475 4.355419
787 1 -0.1681698 -11.44052 2.777299
788 1 12.61732 8.222587 9.726302
789 1 2.058844 3.98403 8.648364
790 2 13.69816 9.885544 2.079403
791 2 7.802778 7.961016 2.155781
792 2 1.763402 0.9317577 9.248612
793 2 3.348372 13.76816 -1.315931
794 1 10.91497 8.01769 -1.415982
795 2 -0.6669208 9.083342 2.792873
796 2 10.7984 3.354053 -0.814927
797 2 -13.70878 -8.850167 -12.94664
798 1 6.751955 5.245411 5.757137
799 1 9.670521 -0.054690372 0.6877031
800 1 10.14953 2.628087 4.686526
801 1 9.852524 -0.6595607 3.857813
802 2 -12.899 7.653431 -3.827928
803 2 -6.85362 -11.4705 3.264542
804 1 -9.363811 13.45423 11.93724
805 1 -3.329679 -9.056752 0.2120118
806 3 -0.7653568 -10.48207 0.048844703
807 3 -7.519612 4.464492 -0.3312067
808 1 -9.932276 10.18223 -0.1180186
809 1 7.019112 12.17453 11.15666
810 1 -8.439218 10.47927 -2.8141
811 1 -6.930746 9.68693 0.014886413
812 1 -6.813148 8.399509 9.121703
813 1 3.390621 8.833792 -0.8308136
814 3 -2.229382 10.96603 5.875416
815 2 1.457307 10.38907 -1.710518
816 1 0.5926862 7.41408 0.5809163
817 1 -1.779547 -6.592289 -3.898052
818 1 -6.014307 -11.58603 -2.508797
819 1 7.400313 -11.43906 -6.319911
820 2 12.2779 -10.91264 -4.329975
821 2 7.066946 -12.99193 8.243929
822 1 -9.245356 -13.66272 6.554602
823 1 9.78062 -12.30896 -3.288779
824 2 4.350352 3.889651 3.786948
825 2 12.81887 3.014849 5.382907
826 1 9.918343 -9.685612 7.306418
827 1 11.42944 14.07451 -1.235842
828 1 12.64162 5.801683 4.691683
829 1 9.302922 12.69398 4.948302
830 3 13.45911 9.598467 -0.4362272
831 3 5.091576 10.1635 7.60253
832 3 12.4449 13.53459 3.359076
833 2 11.27771 13.43108 9.979855
834 2 8.895327 11.35812 7.264989
835 1 7.269455 -11.36203 3.524616
836 1 11.76746 13.96566 6.043259
837 3 8.194805 7.496805 7.137361
838 1 -6.9951 -5.860866 12.42998
839 1 9.693125 -9.670001 4.29675
840 1 -13.49239 -9.366846 4.154856
841 1 -11.72517 14.10341 -7.686768
842 1 3.713326 -6.423667 5.199082
843 1 -13.44852 -10.94727 0.8173327
844 2 -3.188689 -13.38747 6.155797
845 2 -10.39295 -13.78036 9.274335
846 2 -11.85711 -13.75837 7.493136
847 1 -1.893275 -9.741247 -13.57866
848 1 -4.639335 -5.389963 -13.99877
849 3 -3.27832 -3.42954 8.730956
850 2 4.489601 14.10447 7.556467
851 2 -6.533214 13.12219 -12.8018
852 1 1.105496 -4.988595 8.189965
853 1 -7.792783 -10.97781 5.641322
854 2 2.377045 -11.21135 -12.47788
855 2 7.932304 -10.89558 8.805837
856 1 4.399701 -10.13884 5.08767
857 1 -2.084648 13.76972 -3.947197
858 1 0.4392329 -8.426476 1.701691
859 1 4.987792 -11.35196 8.341455
860 1 -4.351372 -9.966609 9.654717
861 3 7.781239 9.956632 9.08688
862 2 6.615818 -3.818294 1.198293
863 2 2.541208 -13.29927 -13.74354
864 1 4.333998 13.52015 3.562006
865 1 9.036958 -12.45052 6.342398