LAMMPS data file from restart file: timestep = 255, procs = 1

1234 atoms

3 atom types

-1.4142135000000000e+01 1.4142135000000000e+01 xlo xhi
-1.4142135000000000e+01 1.4142135000000000e+01 ylo yhi
-1.4142135000000000e+01 1.4142135000000000e+01 zlo zhi

Masses

1 91.22
2 63.55
3 26.98

Atoms

43 1 -9.6766232629766087e+00 -1.1485134119884178e+01 -1.2857962378922535e+01 0 0 0
92 1 -1.2550666360033032e+01 -1.0480301730862323e+01 -1.2059214247545343e+01 0 0 0
934 1 -1.2585411139853019e+01 -1.3084187116966245e+01 -1.3789244910520587e+01 0 0 0
1044 1 -9.5356473016880621e+00 -1.1720058481639496e+01 -9.8128688807008952e+00 0 0 0
1142 2 -1.0942274551904069e+01 -1.3436445949262513e+01 -1.1467169011604735e+01 0 0 0
1203 2 -1.3407075019841356e+01 1.4097311486204537e+01 -1.1544371805211497e+01 0 -1 0
69 1 -7.2443813467128599e+00 -1.2869976527320658e+01 -1.4106695006740960e+01 0 0 0
210 1 -6.7992904563260188e+00 -1.1567245153568333e+01 -1.1141273509853109e+01 0 0 0
567 2 -8.3920570274070485e+00 -1.3744960060409293e+01 -1.1546920873732107e+01 0 0 0
14 1 -1.0462900487395692e+00 -9.9151348154147581e+00 -1.2813724404618538e+01 0 0 0
40 2 -4.7106896267825569e+00 -1.2474861081080791e+01 -1.2762857840293833e+01 0 0 0
188 3 -3.1147206310651052e+00 -1.3819424096594259e+01 -1.1037877465480578e+01 0 0 0
1091 1 -3.4179500189479217e+00 -1.0802374352690835e+01 -1.1105666775740211e+01 0 0 0
1096 1 -5.6598867388686847e-01 -1.2381636914326206e+01 -1.0867195644453011e+01 0 0 0
97 1 2.1686952582486754e+00 -1.2116372185335811e+01 -9.5521582537687575e+00 0 0 0
201 1 3.5143361598899641e+00 -1.3316431769485924e+01 -1.2254540427290427e+01 0 0 0
441 2 4.5306996846098215e+00 -1.1220596724452433e+01 -1.0525117235456152e+01 0 0 0
878 2 8.6603607416954442e-01 -1.3492405434072445e+01 -1.2846433002951393e+01 0 0 0
882 1 1.9498444252915494e+00 -1.0278443941334658e+01 -1.1874598595279123e+01 0 0 0
15 1 7.4543494118339151e+00 -1.1489195011036548e+01 -1.0117737719359319e+01 0 0 0
25 1 6.0439213605422868e+00 -9.1134648860083178e+00 -9.2607570282616738e+00 0 0 0
856 2 8.0223159128512140e+00 -1.2790766368877511e+01 -1.2649192180365267e+01 0 0 0
1228 1 7.7978520023831699e+00 -9.8694137371035211e+00 -1.2674275737791415e+01 0 0 0
1230 2 5.7292832610651789e+00 -1.1739393253806512e+01 -1.2540517479782842e+01 0 0 0
2 2 1.0142085492523977e+01 -1.1912395937949796e+01 -1.1866194405075108e+01 0 0 0
38 1 1.2661984169750061e+01 -1.1623869823460220e+01 -1.3262359902433881e+01 0 0 0
268 2 1.3173767444200001e+01 -1.0710819423008985e+01 -1.0780484377596704e+01 0 0 0
421 1 1.0790576990662762e+01 -9.2791475388026576e+00 -1.1965124171741545e+01 0 0 0
630 1 1.2396059791253863e+01 -1.3504308271411551e+01 -1.0514647570692178e+01 0 0 0
35 1 -1.1467940648778443e+01 -5.2585489796548597e+00 -1.3758363435562222e+01 0 0 0
45 1 -9.3253572482734786e+00 -6.3353610259528237e+00 -1.0188516750075246e+01 0 0 0
108 1 -1.2072761237853724e+01 -6.9824279757260346e+00 -1.1194925073373396e+01 0 0 0
171 2 -1.0520502704882364e+01 -8.7269162197826216e+00 -1.2714214682132527e+01 0 0 0
249 2 1.3755563916853752e+01 -7.0531318377247123e+00 -1.0392995198789155e+01 -1 0 0
1077 2 -1.0741311182202073e+01 -9.2547417109302526e+00 -1.0105366951375828e+01 0 0 0
1131 2 -9.3186062843649538e+00 -6.7268343147902696e+00 -1.2946673281088154e+01 0 0 0
11 1 -6.6433052810578648e+00 -6.8488791491809566e+00 -1.2635289646654416e+01 0 0 0
41 2 -4.3364453644067131e+00 -5.9157000332649439e+00 -1.1246878128896032e+01 0 0 0
75 2 -6.7440982385099852e+00 -7.1449027106971386e+00 -9.9157172507619933e+00 0 0 0
257 1 -5.8931071338890080e+00 -9.9174208836215421e+00 -1.3456611557807433e+01 0 0 0
391 1 -8.2411269645847653e+00 -9.0518900354605929e+00 -1.1409012942335643e+01 0 0 0
1088 2 -5.2609519707044923e+00 -8.7145523313475426e+00 -1.0993166386190126e+01 0 0 0
7 2 -2.9290504148011411e+00 -5.0352501942684986e+00 -1.3781462922949071e+01 0 0 0
91 1 -1.5029921185149830e+00 -5.4422967296241307e+00 -1.1419615919733850e+01 0 0 0
264 2 -3.2801126769912892e+00 -4.7488317472055863e+00 -9.2251390945599834e+00 0 0 0
305 1 -2.4213949720411496e+00 -8.0816487427877899e+00 -1.0642883956360738e+01 0 0 0
1053 1 -3.6032745248056521e+00 -7.7447792291916375e+00 -1.3258057388321451e+01 0 0 0
13 2 2.7238323518097616e+00 -7.4396502036080063e+00 -1.1735267600475783e+01 0 0 0
57 1 1.0524079347971405e+00 -6.7348517201687130e+00 -9.6264836205429791e+00 0 0 0
89 2 3.7530405360025858e+00 -3.4128033820470089e+00 -1.3161796950256186e+01 0 0 0
303 2 4.7088804734149559e+00 -6.9094466683521327e+00 -1.0347171592514892e+01 0 0 0
333 3 2.9230994140061950e-01 -7.7198597019439292e+00 -1.2047725472040989e+01 0 0 0
405 1 3.4126184337247145e+00 -4.5745055889090001e+00 -1.0637762902643603e+01 0 0 0
94 2 7.3158006037676202e+00 -5.1289341340297829e+00 -1.3662648827785739e+01 0 0 0
98 1 4.6607007242700060e+00 -5.9914778288517638e+00 -1.3206870286976333e+01 0 0 0
175 1 4.8006764896463379e+00 -9.1211865271936716e+00 -1.2261918132891505e+01 0 0 0
1136 2 6.6786492308252949e+00 -7.5531966847400138e+00 -1.3595384665524172e+01 0 0 0
1139 1 7.5172026005264900e+00 -6.6083726783660115e+00 -1.1079436448524470e+01 0 0 0
1166 2 8.5598960278552081e+00 -8.9902937567526227e+00 -1.0274988409088273e+01 0 0 0
30 1 9.3161648425956507e+00 -4.4723387139194104e+00 -9.1291780663304500e+00 0 0 0
101 1 9.3166472576755126e+00 -7.0331253569393466e+00 -1.3559603309950070e+01 0 0 0
255 1 1.1387261635010006e+01 -6.2721499588270682e+00 -1.1450394959048273e+01 0 0 0
270 2 1.2211533477006103e+01 -8.7318369924313686e+00 -9.5904598018285387e+00 0 0 0
729 1 1.3785977205625255e+01 -5.9771765285025040e+00 -1.3500703251139033e+01 0 0 0
1093 3 1.3567425025296256e+01 -8.6478116527215487e+00 -1.2272577206861129e+01 0 0 0
132 2 -1.3504035358746258e+01 -1.7981358580804607e+00 -1.0693510060834829e+01 0 0 0
262 1 -1.1491297117426269e+01 -3.8616033598443926e+00 -1.0991080775189639e+01 0 0 0
329 1 -1.0728415548363444e+01 -2.1273854113983619e+00 -1.3829837231584085e+01 0 0 0
80 1 -8.6405428970338587e+00 -4.1762684525199276e+00 -1.2366848706444362e+01 0 0 0
286 1 -6.5437774801570789e+00 -1.7440604528953219e+00 -1.1798748759087243e+01 0 0 0
853 1 -6.2842641443860963e+00 -4.3571518723994256e+00 -9.9895270701728069e+00 0 0 0
907 2 -8.9891029305401577e+00 -3.5890758728879661e+00 -9.6548811077302759e+00 0 0 0
1103 1 -9.4820144463523004e+00 -1.2475121233143562e+00 -1.1055368176330775e+01 0 0 0
1117 1 -5.5392443518157330e+00 -4.1501825307849112e+00 -1.3305427447710109e+01 0 0 0
86 1 -3.5485257160736028e+00 -2.9929967767814372e+00 -1.1456486740026145e+01 0 0 0
121 1 -3.7961624337735942e+00 -8.8544018381308626e-02 -1.0184117293255355e+01 0 0 0
331 1 -8.3215386305600625e-01 -1.6734655244982288e+00 -1.0981327298692023e+01 0 0 0
1089 2 -3.1261859688911531e+00 -2.6597529703499276e+00 1.4013911990230191e+01 0 0 -1
1116 1 -6.0245186773366155e-01 -3.3296324838779712e+00 -1.3400407267052884e+01 0 0 0
1185 1 -1.0056239075576858e+00 -1.2758505520110330e+00 1.2789249856657113e+01 0 0 -1
471 1 4.2784076822813386e+00 -1.5075116083719207e+00 -1.0972786313840974e+01 0 0 0
1062 2 1.8579044105338505e+00 -2.3035957260773934e+00 -1.2119468879537267e+01 0 0 0
1087 2 7.9909669244872883e-01 -4.1220932984165701e+00 -1.0991110667978850e+01 0 0 0
1124 3 3.8126835740354648e+00 -9.2914692634575291e-01 -1.3805709031277203e+01 0 0 0
1154 3 1.5222125653919931e+00 -3.1391374672228779e-02 -1.0848868021645385e+01 0 0 0
265 1 6.3407019319119282e+00 -3.6503429599428587e+00 -1.1727264905619121e+01 0 0 0
923 1 8.8267996138177214e+00 -1.1485318642572335e+00 -1.1339350895474423e+01 0 0 0
1130 2 6.1729468193330037e+00 -1.1623964639287510e+00 -1.2897613711522581e+01 0 0 0
1168 1 9.4840543742361287e+00 -4.0684264388026650e+00 -1.2133039070087454e+01 0 0 0
248 2 1.2232496241096765e+01 -3.8036817532706846e+00 -1.2853224307748077e+01 0 0 0
273 1 1.1871880786094065e+01 -1.9688600726834102e+00 -1.1025268220435759e+01 0 0 0
384 2 1.0970237127134331e+01 1.4463370458188621e-01 -1.2725603249051785e+01 0 0 0
417 2 1.3064857233141597e+01 -1.0888938972889450e+00 -1.3490864937527983e+01 0 0 0
488 1 1.3776263097294667e+01 -4.4116718146985558e+00 -1.0698690413912775e+01 0 0 0
905 3 -1.3540358508749820e+01 -3.0108778685286235e+00 -1.3117326851371548e+01 1 0 0
74 2 -1.0569860680828278e+01 5.4063298160510764e-01 -1.2602615194207260e+01 0 0 0
353 2 -1.1258621638346900e+01 4.1339139322717982e+00 -1.0161543206799776e+01 0 0 0
551 1 -1.3904001341603193e+01 3.3385949291618005e+00 -9.7530492885726847e+00 0 0 0
1104 2 -1.2801797372801277e+01 -5.1126873661155159e-01 -1.2759161932979044e+01 0 0 0
1111 1 -1.2372043221023167e+01 2.5434853637381178e+00 -1.2325714994336797e+01 0 0 0
1167 1 -1.2023575433534145e+01 4.4576817249460510e-01 -1.0090283637853929e+01 0 0 0
1183 3 -1.0012040124487800e+01 2.7897327772510936e+00 -1.3904833583673378e+01 0 0 0
109 1 -8.1063979738709993e+00 3.2168602647572891e-01 -1.3895018565091275e+01 0 0 0
111 1 -9.3304096151879037e+00 2.2766689309752466e+00 -1.0977201748853140e+01 0 0 0
357 1 -6.7318022527343544e+00 9.7710233757171550e-01 -9.9752531571318368e+00 0 0 0
361 2 -6.9047566306752497e+00 2.4096012683098071e+00 -1.2514786269057154e+01 0 0 0
1169 1 -8.0200952793627316e+00 4.8226359425599830e+00 -1.2779675191121591e+01 0 0 0
119 2 -5.4297648991120147e+00 4.9776562024936072e-01 -1.2468836439387072e+01 0 0 0
155 1 -2.4550437228246751e+00 3.7339923086162026e+00 -1.3452850829147661e+01 0 0 0
156 1 -9.7130791726468702e-01 1.5718929539166422e+00 -1.1551282885901074e+01 0 0 0
533 1 1.5058569307957692e-01 5.1963954532368986e+00 -1.1496726186575579e+01 0 0 0
588 2 -2.0453273702344519e+00 4.0960689830811035e+00 -1.0599090153815391e+01 0 0 0
1122 1 -2.8695076373539830e+00 -1.5571810455125981e-01 -1.3231375731641821e+01 0 0 0
1155 2 -2.4223584717785611e+00 2.0560692050673688e+00 -9.3315374230951704e+00 0 0 0
126 1 9.8765980664767139e-01 -1.8601336437213720e-01 -1.3569789010485085e+01 0 0 0
133 2 1.5769836852965449e+00 2.4098634665666809e+00 -1.1677351430399469e+01 0 0 0
162 1 4.9039334696114070e+00 3.7631779790828750e+00 -1.2287208037370014e+01 0 0 0
263 3 3.7530108065632990e+00 1.3071453088854246e+00 -1.1283542969857102e+01 0 0 0
343 1 2.8457855118632844e+00 4.1617518898319723e+00 -1.0119984270768123e+01 0 0 0
165 1 9.5871963590346141e+00 4.5400997138026540e+00 -1.1750265142172159e+01 0 0 0
891 1 6.6242113648629184e+00 9.2669014699423780e-01 -1.0816377025920289e+01 0 0 0
1129 2 9.3590540807878586e+00 1.7546644099301381e+00 -1.1805705099182243e+01 0 0 0
1161 2 5.3806162216439466e+00 1.0596676739187016e+00 -1.3265258653157343e+01 0 0 0
1192 2 7.5184535603802409e+00 2.8697093063576520e+00 -1.3043060753922225e+01 0 0 0
106 2 1.1845979826056368e+01 3.0382028338980631e+00 -1.1371450144590611e+01 0 0 0
136 1 1.0877235421169877e+01 2.4817331172513684e+00 1.4067594550710508e+01 0 0 -1
283 2 1.0869286945634121e+01 5.3537764899428264e-01 -1.0146460867876314e+01 0 0 0
345 1 1.3382362480890739e+01 8.1109404067940527e-01 -1.1362413927634265e+01 0 0 0
1164 1 1.3484508159469581e+01 3.8905580269382467e+00 -1.3428938627273576e+01 0 0 0
114 2 -1.2822367544981651e+01 5.3348304335157382e+00 -1.1703273814887314e+01 0 0 0
203 2 -1.4008549375926869e+01 6.6138216252542037e+00 -1.3396522166044237e+01 0 0 0
243 1 -1.3148146585707963e+01 8.1265700354634678e+00 -1.0942816931288462e+01 0 0 0
299 2 -1.0585204350940895e+01 4.7877300229412407e+00 -1.2438831589588675e+01 0 0 0
313 2 -8.9216566609623875e+00 5.0029439594102145e+00 -1.0116306120108906e+01 0 0 0
393 2 -9.8454914864796859e+00 7.0087848042906336e+00 -1.1270405155703122e+01 0 0 0
107 2 -4.4663406886310879e+00 7.9253986351127512e+00 -1.0804752425288902e+01 0 0 0
185 1 -5.7385077438575962e+00 8.1101962039927802e+00 -1.3483606983604796e+01 0 0 0
552 1 -4.3040059238651986e+00 2.7644106448469152e+00 -1.1544820299448521e+01 0 0 0
986 2 -8.3453419674014278e+00 7.3048685894863068e+00 -1.3718729952563695e+01 0 0 0
1080 1 -5.5279479031119756e+00 4.3951456855375781e+00 1.4107819023083483e+01 0 0 -1
1182 1 -7.1105574237817830e+00 7.0087956389068671e+00 -1.0885633045175316e+01 0 0 0
79 1 -3.4914766555432939e+00 6.4853388248357460e+00 1.3457311219565478e+01 0 0 -1
148 1 -1.9243190002378869e+00 8.4258141228713903e+00 -9.9187055410686256e+00 0 0 0
238 2 -2.5216147004838620e+00 6.3512926255415003e+00 -1.2108502161213092e+01 0 0 0
979 2 -6.0829649530992880e-01 7.9362808828432900e+00 -1.2468945732913072e+01 0 0 0
1147 2 -4.9288139798401378e+00 5.7247022414327828e+00 -1.2082932869230651e+01 0 0 0
18 1 1.8236819039573877e+00 7.7274678970417243e+00 -1.3796900264465657e+01 0 0 0
26 3 5.4909469851168424e+00 9.4308511101676320e+00 -9.2652062680408847e+00 0 0 0
164 2 2.3871158093090261e+00 4.8800374236379582e+00 -1.3083595316075863e+01 0 0 0
177 2 3.1307136862000839e+00 8.4518008836229672e+00 -9.3390152056920339e+00 0 0 0
341 2 4.2114661860206999e+00 8.8728092731535533e+00 -1.1411949460327762e+01 0 0 0
360 2 5.5570717469805575e-01 7.6021168951431672e+00 -1.0234053145488296e+01 0 0 0
1187 3 2.6443083861846373e+00 6.7962482468651881e+00 -1.1252306709061136e+01 0 0 0
154 1 8.1796089660366640e+00 7.2399372068599446e+00 -1.3807090774585962e+01 0 0 0
372 1 5.1156882462172284e+00 6.5299031245473387e+00 -9.9449569137131295e+00 0 0 0
546 1 4.9600914648749068e+00 6.9565784334520409e+00 -1.3106757619658081e+01 0 0 0
1033 1 6.7543615024541177e+00 9.6291491312670363e+00 -1.1915079989496473e+01 0 0 0
1165 2 7.0304180340499292e+00 5.3198223127037307e+00 -1.2172171180544208e+01 0 0 0
1229 3 7.6122672304694614e+00 7.2188940988540073e+00 -1.0813708545665714e+01 0 0 0
137 1 1.0355352416010762e+01 7.4598337020228609e+00 -1.1440950178185620e+01 0 0 0
168 1 1.2848217698351947e+01 5.8875649511239008e+00 -1.0913924742477837e+01 0 0 0
316 1 1.2409254861069346e+01 9.3985312355912551e+00 -9.9249762601697888e+00 0 0 0
935 1 1.2796897207836096e+01 8.8050232857214414e+00 -1.2853522693527305e+01 0 0 0
1069 1 1.1465675822728437e+01 6.0620123004078863e+00 -1.3989883802197882e+01 0 0 0
113 1 -1.0961000545078493e+01 1.0217328730939601e+01 -1.1532741028252849e+01 0 0 0
142 1 -9.9111573222173099e+00 1.2845952912446878e+01 -1.3173357566373586e+01 0 0 0
170 3 -1.1600905705218096e+01 1.2721139543154079e+01 -1.0436355494568790e+01 0 0 0
544 2 -1.2599255092372733e+01 1.2276797073234226e+01 -1.3662044680480580e+01 0 0 0
1208 2 -1.2947450762366248e+01 9.7971618803113891e+00 -1.3166704243178543e+01 0 0 0
77 1 -8.1970245086911380e+00 1.0051582087346279e+01 -1.3329853993525225e+01 0 0 0
116 1 -6.0694052060253814e+00 1.0083433952917849e+01 -1.0928618203071448e+01 0 0 0
216 2 -5.0647405738403082e+00 1.1145351409531417e+01 -1.3232248088483770e+01 0 0 0
219 1 -5.7355200481491684e+00 1.3367940473793947e+01 -1.1482800717549972e+01 0 0 0
387 2 -7.1181796930768151e+00 1.2575503721210627e+01 -1.3710562037341964e+01 0 0 0
1114 2 -8.7244449541618021e+00 9.1562955198015903e+00 -1.0776503352081747e+01 0 0 0
1175 1 -8.5151300871001734e+00 1.2031863070255065e+01 -1.0435102125944757e+01 0 0 0
27 2 -7.6662787268064592e-01 1.1049360353813256e+01 -1.0433248608175575e+01 0 0 0
96 1 -3.0582095078187201e+00 9.3030812172876125e+00 -1.2742679468138098e+01 0 0 0
178 2 -9.1897659215913152e-01 1.3254847145079083e+01 -1.1807551918218998e+01 0 0 0
220 1 -3.4341486798246876e+00 1.1463981703941046e+01 -1.0198643797128968e+01 0 0 0
1020 1 -3.4435363239197825e-01 1.0648553539641670e+01 -1.3120057603702390e+01 0 0 0
1082 3 -2.8668516909773905e+00 1.2325554750337682e+01 -1.2812091903589563e+01 0 0 0
181 3 3.6515786685928169e+00 9.8926793325542857e+00 -1.3569926131695606e+01 0 0 0
192 2 3.6383347775924824e+00 1.3936339216192231e+01 -9.3573497794998630e+00 0 0 0
200 1 4.4756170070902597e+00 1.1736176040852589e+01 -1.1124870631869580e+01 0 0 0
396 1 1.7345063368295544e+00 9.9435979615475816e+00 -1.1160826908608028e+01 0 0 0
1021 1 2.4402984124692702e+00 1.2391047713905627e+01 -1.3533207157327613e+01 0 0 0
1209 1 1.4589903862962355e+00 1.3091298964555117e+01 -1.0649034257482235e+01 0 0 0
56 1 9.2133295235531545e+00 -1.3991327228186016e+01 -1.0135407814937722e+01 0 1 0
67 2 5.2720639445172877e+00 1.1941951662380156e+01 -1.3604726879577770e+01 0 0 0
206 1 7.3412707564201778e+00 1.1641076804933522e+01 -9.5377207722230253e+00 0 0 0
406 2 9.3801841530918875e+00 9.9040520644715215e+00 -1.2260836479671529e+01 0 0 0
580 1 6.0657490718675655e+00 -1.3987604077413064e+01 -1.0566842712605766e+01 0 1 0
1027 1 7.9172091996054981e+00 1.2415260783154430e+01 -1.2554944661809294e+01 0 0 0
1057 2 6.0526650569812901e+00 -1.4014166347951408e+01 -1.3421928739733128e+01 0 1 0
140 2 1.1314212640221031e+01 1.0999389033275060e+01 -1.3715251352178754e+01 0 0 0
358 1 1.0845160268462413e+01 1.1871976798594478e+01 -1.1200483371931858e+01 0 0 0
1032 1 1.4047172458382802e+01 1.1516495034077002e+01 -1.1504644230828193e+01 0 0 0
1172 2 1.0237814334815912e+01 -1.4110920513866793e+01 -1.2892672448529456e+01 0 1 0
1177 1 1.2768087148768288e+01 1.3531866704458889e+01 -1.3412407044137236e+01 0 0 0
246 1 -1.0467035059993227e+01 1.4066978051086211e+01 -8.1654964956786511e+00 0 -1 0
276 2 -1.3650486832805960e+01 -1.0148150783883928e+01 -6.3855905105389477e+00 0 0 0
359 1 -1.2684444079587450e+01 -1.2245685908866802e+01 -9.7271383078593452e+00 0 0 0
415 1 -1.3139557475290916e+01 -1.2955581849580675e+01 -6.7836967985363357e+00 0 0 0
420 1 -1.0906457763903099e+01 -1.0884863989741714e+01 -7.2804289426047921e+00 0 0 0
446 2 -1.0916490641292979e+01 -1.3347246224400013e+01 -5.4757062046837532e+00 0 0 0
512 2 -1.0035883319471166e+01 -1.1250861042207701e+01 -4.6448789962189334e+00 0 0 0
227 1 -8.2517460790813804e+00 -1.3343253301301971e+01 -5.6954506246135299e+00 0 0 0
252 1 -5.4751265580568020e+00 -1.0203583540828456e+01 -8.5914828010263591e+00 0 0 0
400 1 -7.2803275853428930e+00 -1.3837223824777215e+01 -8.8253870842518563e+00 0 0 0
661 2 -7.9612197879034809e+00 -1.1443839084939682e+01 -7.5456291393308508e+00 0 0 0
1086 2 -5.3957466533225880e+00 -1.2608234728625270e+01 -7.1730382905318972e+00 0 0 0
1105 2 -6.4315977727285940e+00 -1.0779185134475275e+01 -5.7450709050955897e+00 0 0 0
120 1 -3.6424863742105109e+00 -1.0844947586189408e+01 -5.7474601963459486e+00 0 0 0
228 2 -2.8530496484029033e+00 -9.4340790915215322e+00 -8.3576207536220828e+00 0 0 0
258 2 -8.2140887235280469e-01 -1.0424753318230158e+01 -6.3447891871532569e+00 0 0 0
296 1 -2.6792323491581858e+00 -1.2070382666047310e+01 -8.3385633785797104e+00 0 0 0
427 3 -3.4451636152488900e+00 -1.4042653873905355e+01 -6.2738910382194506e+00 0 0 0
431 1 -9.5934738467619951e-01 -1.2936720016035856e+01 -5.4727932251642493e+00 0 0 0
456 2 -4.9205840091244681e+00 -1.2686091164006791e+01 -9.7833879726895940e+00 0 0 0
12 2 -6.2531671812551259e-02 -1.2181257684852778e+01 -8.0408428184669294e+00 0 0 0
33 2 3.9405881928635500e+00 -1.2157454628088255e+01 -5.0545699588685364e+00 0 0 0
339 1 2.1496672577303073e+00 -1.0942470557175666e+01 -6.6094027473649204e+00 0 0 0
368 1 3.0544304744443100e+00 -9.0484235154596657e+00 -9.0791028677143437e+00 0 0 0
404 1 -2.0802568217234046e-01 -9.7341302869486004e+00 -9.5545342854025890e+00 0 0 0
770 2 1.7827728142821726e+00 -1.3306924728115371e+01 -4.7274122367483686e+00 0 0 0
58 1 5.2153917904386660e+00 -9.6627619953466191e+00 -6.0838197820819877e+00 0 0 0
131 1 4.9717460906525597e+00 -1.2116194343976222e+01 -7.9812638531411437e+00 0 0 0
348 1 6.4703868011992922e+00 -1.2859008034148724e+01 -5.4920728060837298e+00 0 0 0
428 3 8.3620686068198928e+00 -1.2114621171322401e+01 -7.4870538433049472e+00 0 0 0
17 1 1.3004274666843274e+01 -1.1408965513120039e+01 -8.1884012999201587e+00 0 0 0
245 1 1.0981969263173820e+01 -1.3636094314746735e+01 -7.6225729733052825e+00 0 0 0
284 1 1.2738228315091360e+01 -1.1796008062914437e+01 -5.1772639947448074e+00 0 0 0
386 1 9.7416186513404543e+00 -1.3191375317455757e+01 -4.7074366993307217e+00 0 0 0
442 2 1.0395265715794180e+01 -1.1116614676015802e+01 -6.4495360517101563e+00 0 0 0
445 1 1.0401576836858716e+01 -1.0905608344989218e+01 -9.3384579512433064e+00 0 0 0
37 1 -1.3298184295197496e+01 -9.1576645882469165e+00 -9.0600053830097647e+00 0 0 0
105 1 -1.2848071985706545e+01 -5.6207318710293119e+00 -8.3684614549480383e+00 0 0 0
176 3 -1.0217748748234696e+01 -4.8524678033290840e+00 -7.9144000748707475e+00 0 0 0
224 1 -1.0860837906396910e+01 -7.7204535345717122e+00 -7.6882948335519989e+00 0 0 0
458 1 -1.0085422923696274e+01 -5.9618365787244105e+00 -5.2322217160859203e+00 0 0 0
540 3 -1.3884038788114815e+01 -7.6564128337321868e+00 -6.6476919146816087e+00 0 0 0
690 2 -1.2864736183389093e+01 -6.3138704074185394e+00 -4.8896564089672658e+00 0 0 0
10 1 -8.7032451571013176e+00 -8.9485406527357103e+00 -5.5119579407922394e+00 0 0 0
83 2 -6.1772778686849223e+00 -8.4704791441193255e+00 -6.6157204485721381e+00 0 0 0
513 1 -7.6084378894926177e+00 -6.2116310349801021e+00 -7.4361114557736343e+00 0 0 0
1049 1 -8.2970829593825997e+00 -9.0282342268209739e+00 -8.5418978870672309e+00 0 0 0
49 1 -1.9738173223775102e+00 -8.0091480503026222e+00 -6.3105943446346950e+00 0 0 0
259 2 2.2660610917939844e-01 -6.4945114794496028e+00 -7.0670488606861923e+00 0 0 0
260 1 -4.5559421689020310e+00 -6.6418109504108065e+00 -5.5035977940204557e+00 0 0 0
494 2 -3.4112804941321873e+00 -8.6651138865022403e+00 -4.1366621440400593e+00 0 0 0
698 1 -2.1731906843009563e+00 -4.8743468597514328e+00 -6.3677013884610609e+00 0 0 0
1055 2 -1.6438728172150594e+00 -6.5559237920933446e+00 -8.6542198770519310e+00 0 0 0
1224 1 -4.4912077411635778e+00 -7.0843178577182222e+00 -8.5119921537133099e+00 0 0 0
20 2 6.6277515481290361e-01 -8.7569851274478268e+00 -7.3245595473974383e+00 0 0 0
225 1 2.6447975301438778e+00 -5.0706632928262518e+00 -7.7373657653839105e+00 0 0 0
235 3 2.6547686751477122e+00 -7.8327185599497184e+00 -6.3731632164243592e+00 0 0 0
291 1 5.1072738845105037e-01 -7.8835505544709683e+00 -4.4701524607394365e+00 0 0 0
24 1 5.0272236304284892e+00 -6.8649772843426078e+00 -7.5485727733828334e+00 0 0 0
71 3 6.0877780109259962e+00 -4.9199489096584976e+00 -9.1928964526379211e+00 0 0 0
292 3 7.2285375448236726e+00 -7.3675082171396671e+00 -5.8260399592188739e+00 0 0 0
506 2 4.6093454257844302e+00 -4.5204586849027422e+00 -5.9714150810767403e+00 0 0 0
647 1 8.4892870121086723e+00 -9.2725907017334421e+00 -7.4071305727522017e+00 0 0 0
751 2 7.7297858041100413e+00 -6.7568241757616008e+00 -8.3155472604493887e+00 0 0 0
280 1 1.1738539860028851e+01 -8.8557417484832595e+00 -6.7862686691479386e+00 0 0 0
344 1 1.2401023107672733e+01 -6.0757584685222232e+00 -8.2531380784010899e+00 0 0 0
448 1 9.9165407809067005e+00 -6.3629506716963764e+00 -6.4990188807241562e+00 0 0 0
484 1 1.2886993843363394e+01 -5.3413894278031222e+00 -5.1962806213625283e+00 0 0 0
655 3 1.0057960431723609e+01 -7.4958159599499936e+00 -9.1891835759537912e+00 0 0 0
352 1 -1.2181704647897654e+01 -3.7640598115475394e+00 -5.8128380277800620e+00 0 0 0
482 2 -1.1785763269835714e+01 2.4157683829397983e-01 -7.4026363672454956e+00 0 0 0
485 3 -1.0531769885993709e+01 -1.1598922554472451e+00 -5.7724826962159019e+00 0 0 0
556 1 -1.1256660757008445e+01 -2.2164249273966208e+00 -8.4670374815161420e+00 0 0 0
1108 2 -1.3789197160777441e+01 -3.0982058050670234e+00 -8.4451371598720151e+00 0 0 0
78 1 -5.6171141315888677e+00 -1.0024902893377912e+00 -7.5469055024963270e+00 0 0 0
294 2 -7.3961599364758204e+00 -1.7690968240315827e+00 -9.3061181723804687e+00 0 0 0
322 1 -7.8651262127441930e+00 -1.0012582792196534e-01 -5.4029769906555485e+00 0 0 0
564 1 -6.1627776630859241e+00 -2.3782388735116924e+00 -4.5994098193446664e+00 0 0 0
696 1 -5.1843327376135706e+00 -4.1197751476267159e+00 -7.0826362672829761e+00 0 0 0
1150 1 -8.2439653592579614e+00 -2.9676682232253024e+00 -7.0190718906261296e+00 0 0 0
85 1 -3.1464542925828315e-01 -4.0594785873782646e+00 -8.5866752218236364e+00 0 0 0
295 1 -2.7045580456838407e+00 -2.2260358263545874e+00 -8.4331816088055866e+00 0 0 0
297 1 -4.2536879037546310e-01 1.3868990488506464e-01 -8.6071019907907207e+00 0 0 0
336 1 -3.3468555443149550e+00 -2.0530070906041296e+00 -5.5822759994118138e+00 0 0 0
234 1 1.9226354785397288e+00 -2.0905370242664092e+00 -8.9578012394288642e+00 0 0 0
306 1 2.8569042057775849e+00 -2.3672865614988199e+00 -5.9909559117155329e+00 0 0 0
477 1 9.1255741710400595e-01 -4.7643072255777428e+00 -5.3490341157976253e+00 0 0 0
499 1 -2.4494209225687547e-01 -1.8829845175819235e+00 -6.3150747781318151e+00 0 0 0
50 1 7.0342568929841098e+00 -2.2131941393439827e+00 -9.1611985420382123e+00 0 0 0
61 2 4.5195634374922218e+00 -3.0896369619248110e+00 -8.3690190841308318e+00 0 0 0
266 1 4.6902320568001805e+00 -1.5844397767467305e-01 -8.3576077112289084e+00 0 0 0
409 1 7.3918950709255364e+00 -4.5568433731858935e+00 -6.5019068085786795e+00 0 0 0
466 3 8.7635076333639876e+00 -1.7929138999222540e+00 -6.8596522179281543e+00 0 0 0
514 1 5.8998541982158255e+00 -1.9265044561367792e+00 -6.1243029291438909e+00 0 0 0
1 3 1.1941519116179453e+01 -3.3224379693539383e+00 -8.4720763676755393e+00 0 0 0
267 2 1.0062100299252545e+01 -1.6516948168675163e+00 -8.9571134519532016e+00 0 0 0
304 1 1.3369849380276221e+01 -5.9493968570116396e-01 -8.4536326033162155e+00 0 0 0
308 2 1.0314334105827161e+01 -3.8000382279283969e+00 -6.3644346155047122e+00 0 0 0
481 2 1.3288607827905281e+01 -2.9255384833185056e+00 -6.3740540286688079e+00 0 0 0
593 2 -1.3208896951765583e+01 -1.2431738850656482e+00 -6.2703930517928956e+00 1 0 0
725 2 1.1271951095637528e+01 -1.6484148503380947e+00 -6.7561699005428943e+00 0 0 0
72 2 -1.1167416845470003e+01 2.4288753133381160e+00 -8.4872098391264004e+00 0 0 0
271 1 -1.3719012691035083e+01 1.9170292099427935e+00 -6.8550587299185013e+00 0 0 0
281 2 -1.2430110446559109e+01 4.2346419966214315e+00 -7.2930704287321468e+00 0 0 0
282 2 -1.0442710419080440e+01 5.2840129618826985e+00 -8.1009670146333281e+00 0 0 0
558 1 -1.0490314037188698e+01 2.0762797055728877e+00 -5.8259862954440118e+00 0 0 0
570 1 -9.1269096073252332e+00 1.4773621347440699e-01 -8.2075286298680421e+00 0 0 0
793 2 -1.2252972969840465e+01 3.9003772238864154e+00 -4.8194222501501986e+00 0 0 0
44 1 -8.4380993432628273e+00 3.1357217624586049e+00 -8.0661812050824260e+00 0 0 0
518 2 -6.1235047079846323e+00 1.6146226677627105e+00 -7.1108911917245878e+00 0 0 0
76 2 -2.4730318092176313e+00 2.4342155998771813e+00 -4.7715029726578253e+00 0 0 0
194 1 -2.6264025723986295e+00 3.8658512252621726e+00 -7.3542741001998753e+00 0 0 0
326 1 1.0737665964143289e-01 3.2449429813694204e+00 -9.0131003089391868e+00 0 0 0
330 1 -3.0703689593804970e+00 7.5558048143957823e-01 -6.9711513845871291e+00 0 0 0
394 2 -4.5981447023846673e+00 3.2174656346961914e+00 -5.5761343365999840e+00 0 0 0
628 2 -4.7836000117877093e+00 2.6759364222200719e+00 -8.8141257018608190e+00 0 0 0
88 2 2.3254365332019868e+00 1.4921787007706946e+00 -9.1016435294821179e+00 0 0 0
298 2 2.0743922782539133e+00 1.3831037639696353e-01 -7.0429527696572904e+00 0 0 0
369 1 -8.0305484168694097e-02 4.9729010100923006e+00 -6.1447200862976779e+00 0 0 0
538 1 -3.9822123059992318e-02 1.9044133659443443e+00 -6.1296445541839448e+00 0 0 0
577 1 4.5835834653728851e+00 4.8747931002930116e+00 -7.6761208832293537e+00 0 0 0
1128 2 2.0089943427784704e+00 3.7286623285544818e+00 -7.1381843245747278e+00 0 0 0
1162 2 4.8492056480936787e+00 2.5748402775530259e+00 -9.4626544461347191e+00 0 0 0
53 2 7.7243893157268824e+00 1.4223446107650448e-01 -8.1662305474536989e+00 0 0 0
99 3 8.8818459111687833e+00 1.9792772052532446e+00 -9.4059335289485926e+00 0 0 0
237 2 6.3959564226127901e+00 2.1405693794759730e+00 -7.6906258935861302e+00 0 0 0
370 1 5.7389949401975260e+00 3.3611846208632521e+00 -5.2633907315704880e+00 0 0 0
449 1 8.7515855941378451e+00 3.2577179230367230e+00 -6.6618966705083427e+00 0 0 0
949 3 3.7708992845059006e+00 2.1770884308566192e+00 -7.1313219434264044e+00 0 0 0
1001 1 7.5869031934641136e+00 6.6387539313373567e-01 -5.4196513091069427e+00 0 0 0
100 2 1.2425093653631171e+01 1.9075383612679497e+00 -8.7910880620665051e+00 0 0 0
115 1 1.0796308375539517e+01 4.1502192911910623e+00 -9.0369693424525277e+00 0 0 0
349 1 1.1995629329221426e+01 3.5401637448183649e+00 -6.4770300448120013e+00 0 0 0
545 1 1.0435060041805938e+01 7.8488821201001746e-01 -7.3454163392465244e+00 0 0 0
312 3 -1.2730083363864837e+01 5.9326307388499622e+00 -9.1273275305852604e+00 0 0 0
319 1 -1.1799243801519887e+01 6.7054254878920680e+00 -5.9766957254064597e+00 0 0 0
363 1 -1.0736652454865370e+01 8.1196441758749760e+00 -8.8614371391999445e+00 0 0 0
364 1 -1.4054890992336265e+01 7.9900842713889553e+00 -7.6583613320339374e+00 0 0 0
389 2 1.4120341075417565e+01 5.2372651601123970e+00 -5.8260572753088384e+00 -1 0 0
150 1 -6.0200868687148734e+00 4.7375835015713719e+00 -7.3134413330821921e+00 0 0 0
522 3 -8.2527661202659512e+00 6.4236393326106231e+00 -8.1372512939972665e+00 0 0 0
526 1 -6.6586817132378053e+00 7.7772482941813497e+00 -6.0716860416495981e+00 0 0 0
528 1 -9.1070399975485987e+00 5.0884264733660354e+00 -5.6413806644050100e+00 0 0 0
560 1 -7.8371234825166516e+00 9.4429174708849786e+00 -8.2850890309439951e+00 0 0 0
733 2 -5.9056474769162159e+00 7.2459266650485255e+00 -8.6006098784964777e+00 0 0 0
788 2 -9.3516550506759799e+00 7.8417861848648371e+00 -6.2768314980922257e+00 0 0 0
810 1 -4.4054523188122161e+00 9.3306493057367916e+00 -8.1685830305161549e+00 0 0 0
1153 3 -6.6017716680774745e+00 3.9908714454717931e+00 -1.0299755594357672e+01 0 0 0
163 2 -1.7173422509290002e+00 1.0444416405687997e+01 -8.1196638622421311e+00 0 0 0
365 1 -3.7769296015228830e+00 6.7837438361628708e+00 -6.7025211178485806e+00 0 0 0
371 3 -1.1418490451423478e+00 5.8879794697752814e+00 -8.8486025100545085e+00 0 0 0
376 1 -1.1451146092714943e+00 7.7327198989140866e+00 -6.6433671231800959e+00 0 0 0
601 1 -4.0015646462744749e+00 5.5377190240061118e+00 -9.5946243228472365e+00 0 0 0
130 2 1.5443410759899137e+00 7.8914104080829413e+00 -5.5415347388846143e+00 0 0 0
157 1 1.7473011407663417e+00 6.2840103504089635e+00 -8.2276903615557337e+00 0 0 0
221 1 4.1348741653489443e+00 8.1281683934147235e+00 -6.8856761359545944e+00 0 0 0
380 1 9.4875676688885813e-01 9.2659769374921002e+00 -7.9929881040440112e+00 0 0 0