1220
28.28428 28.28428 28.28428 LAMMPS data file via write_data, version 31 Jan 2014, timestep = 360
Al	-8.71863842853	-12.9699592123	-12.3311044258
Al	-10.8856532958	-11.8808533581	-11.2978120933
Al	-13.4083800111	-12.0224585635	-12.3355241905
Al	-10.7028537338	-12.9285316818	-8.39466731063
Al	-8.89069449021	-10.0427768791	-11.9613946932
Al	-10.5307598798	-9.07791942244	-9.96816457201
Al	-12.6149499046	-9.39219694947	-11.7364351179
Al	-6.45179940506	-8.90201160393	-12.9644358227
Al	-6.3120688932	-11.2786801779	-8.26502886926
Al	-8.6078212702	-11.7859025718	-9.7222927972
Al	-3.82100757624	-11.1379106778	-9.41767140689
Al	-5.92492112336	12.3704557488	-9.28934516852
Al	-7.97912247694	-9.19235902592	-8.96365034629
Al	-4.70002114492	-11.1018894815	-13.9168550352
Al	-6.15648986983	-13.5900578936	-13.2815629387
Al	-6.23442844134	-10.9357864305	-11.2770681304
Al	-3.66444175295	-12.5367650165	-11.7546662012
Al	-6.17218636651	-13.3141127259	-10.2608656412
Al	-3.72381994165	-14.0467874071	-9.37432552492
Al	-0.514109403535	-12.8935271429	-11.9460228268
Al	0.961720834672	-10.1174792435	-12.7434851906
Al	2.39862092813	-12.6181435987	-8.11102062241
Al	1.3810826678	-11.7009160144	-10.4400280786
Al	-1.7867748636	-11.1362903825	-13.5772305964
Al	2.90960026122	-7.92287467048	-12.381087297
Al	-1.81609108879	13.1147894374	-11.0924705851
Al	-1.84256561694	-10.3960187719	-7.77589782203
Al	0.947951410112	13.7367318778	-9.92801370521
Al	-1.24601934791	-10.4791359578	-10.814279771
Al	3.80770462102	-9.96985754073	13.7721228558
Al	6.09520921467	-11.8096652687	-11.1032751238
Al	5.35366744789	-9.03581476191	-10.5557332714
Al	7.66290388703	-12.1819723224	-14.0089803871
Al	9.45133730257	-13.6661853725	-12.5730014297
Al	5.63702547798	-7.20219454455	-12.815657358
Al	4.8630963708	-12.5473545331	-13.7442552679
Al	3.70358414586	-13.3786613256	-10.6379863509
Al	2.11902199463	-12.8030347865	-12.955717656
Al	2.7931980061	-9.27816641583	-9.86129560162
Al	3.65018142223	-10.7921965076	-11.9026043105
Al	7.4514794901	-10.122110587	-9.04879352566
Sm	10.7354677168	-8.52703958995	-11.8887901822
Al	8.5088121558	-12.7291857929	-10.0357352497
Al	12.5207819409	-12.7475598356	-13.3943228526
Al	10.9358643999	-11.8675351609	-11.1276791733
Al	13.1892814141	-10.2151011453	-10.8192376292
Al	-12.7712301954	-11.1595129175	-9.56978725671
Al	8.47096259011	-10.6280851658	-11.7436790025
Al	13.284540603	-12.857950315	-10.2031315667
Al	10.4322893626	-11.0544225313	-13.6606354446
Al	11.1252599936	-13.2804620445	-8.59665671081
Al	10.9542732495	-10.3895585769	-8.85536216789
Al	-10.5671398259	-7.87601311136	-12.6806081553
Al	-9.8469995607	-6.19728105528	-9.34390683585
Al	-12.1531896677	-6.64998278924	-10.876195963
Al	-9.49908222424	-4.32698680663	-11.4595569714
Al	-11.8379336961	-4.08258381079	-9.94353468443
Al	-9.75795696941	-1.46435914012	-10.4061655312
Al	-8.24898411998	-7.40228491363	-11.1158330229
Al	-11.5196964084	-2.30811631514	-7.67506031528
Al	-11.6674765015	-5.07668348472	-13.0580998166
Al	-6.12282486157	-6.27491788019	-12.2367197753
Al	-5.61361535233	-8.37714631281	-10.2318691208
Al	-4.63230147836	-5.76544115277	-9.80661004255
Al	-4.57744862446	-5.37817715001	13.827756063
Al	-6.72435613636	-7.00649998915	13.3715250196
Al	-3.4154903224	-6.61233099146	-12.1026850609
Al	-4.64500340377	-3.95298406072	-11.9917678646
Sm	-2.36687566137	-7.90020159222	-9.43627454364
Al	0.701657571292	-3.8216940647	-13.0982744096
Al	-1.50352642057	-8.38279882602	-12.7876451753
Al	-0.912961004019	-5.62105235951	-11.4245069016
Al	1.74280731089	-5.48654348305	-11.0282770289
Al	0.499860922522	-7.97967496807	-10.8632186278
Al	-3.74956785626	-9.61058972069	-11.8178904787
Al	0.444838598123	-6.51860302195	-13.679229206
Al	-2.12727826888	-4.61801648198	-13.5808876725
Al	9.26001875273	-5.59416256194	-10.0735199333
Al	6.33693986268	-4.62796403252	-13.6638397167
Al	6.53104471221	-5.25323673913	-10.8317806007
Al	5.53815856358	-2.59517543219	-12.1737055458
Al	4.12381260364	-6.54605337863	-10.2833414342
Al	6.11912109745	-9.90248533922	-13.1573426657
Al	3.66627177427	-4.93023662289	-12.8369044619
Al	3.8262528409	-3.51660200317	-10.2390497472
Al	7.76709906302	-8.03512278026	-10.9142496554
Sm	13.9124768745	-3.82868471048	-12.116287137
Al	8.43325821641	-6.2203204663	-12.7384339374
Al	11.3743292677	-5.85960606609	-8.26163720901
Al	-13.0698688282	-8.50130460115	-8.95362814432
Al	13.6392336253	-7.42470797354	-11.8217568473
Al	12.4991845552	-8.13787300024	-9.24713921253
Al	13.814125106	-5.8114465305	-9.706034566
Al	12.8038443637	-6.85305359537	13.9518298508
Al	11.2936173962	-5.53725540555	-12.016591303
Al	-12.6519686747	-1.46609250919	-9.97877574096
Al	-13.6468341956	1.17156995782	-10.2918495128
Al	-11.5268785592	-2.23029459193	-12.2996917604
Al	-8.77242051073	1.33308086173	-10.2529391109
Al	-13.6911861356	-0.626567463242	-12.4824561352
Al	-9.40356797825	2.383569084	-13.028173232
Al	-11.2760528156	0.86574760442	-11.507742167
Al	-9.32743649443	-0.425081767446	-12.9645721342
Al	-3.76062720716	0.138370861041	-10.2864396409
Al	-7.06355657283	3.41880788078	14.0819416431
Al	-7.0598389846	0.965566700161	-12.6936625175
Al	-6.74719905794	-0.715437725775	-9.84318748034
Al	-5.10182879783	-1.0726075647	-12.2076978838
Al	-7.50639441738	-2.49914376182	-11.7308506035
Al	-7.16087642514	-4.82455804502	-10.0168780237
Sm	0.724390557023	-2.61579048582	-9.98534922361
Al	-2.30395792339	-2.30039623658	-11.6130634047
Al	-2.47768994796	0.165628392851	-12.8223039186
Al	0.0990173005445	-1.06066811572	-12.5924930617
Al	0.385200455992	3.04288861418	-10.1628374547
Al	-2.4649719124	1.25345431521	-7.99793885943
Al	1.72189608493	0.563787745105	-11.2123868462
Al	1.73067938145	1.02069710804	-8.64637286352
Al	3.41717409548	3.00918945762	-9.57713947794
Al	-0.873880923979	0.356388567578	-10.2609105873
Sm	8.90981640538	-3.16665176451	-12.1090096635
Sm	4.38162053151	-0.274090503161	-9.97256598101
Al	2.78243670843	-1.94511902333	-12.4995625289
Al	4.84026891375	-0.152215480708	-13.0521221574
Al	6.33977619268	1.78645114391	-12.001904907
Al	9.05347937341	-2.28042347521	-9.0314549965
Al	3.68797534154	2.25481758573	-12.1463219622
Al	7.44633032522	-0.619198513955	-10.9311654136
Al	6.43226063597	-2.78358941228	-9.63549158877
Sm	9.00149222917	0.594048681566	-13.2625381017
Al	11.2870634111	2.7083263674	-14.0372969361
Al	12.2432078381	0.884221694135	-12.189122515
Al	10.3894759104	-0.642964392877	-10.8034386953
Al	7.8859945958	1.96375711381	-9.87677840409
Al	9.50339419702	0.383955332748	-8.44822651763
Al	11.7770470315	-1.6223872365	-13.1022612803
Al	13.0154165452	-1.26510382098	-10.3516372035
Al	11.3874786283	-3.55631817052	-10.0292717173
Al	12.0954124249	1.43543025847	-9.28453955988
Al	-11.5783533114	3.90079077322	-13.396580992
Al	-9.21934485537	5.26988154454	-13.6381979272
Al	-9.38894722599	8.10146980006	13.8103817718
Al	-9.91812645275	4.7679676488	-10.8714004836
Al	-12.3982252057	3.58087517333	-10.8878464556
Al	-8.87101207159	7.33328825943	-11.9724791357
Al	-10.6601461226	3.27187098576	-8.7260809458
Al	14.1248699878	2.60600737593	-13.821006868
Al	-10.0494496814	7.47589351232	-9.47822965771
Al	-11.7516470308	6.5590942985	-11.8223076477
Sm	-2.75727522235	3.07600268786	-10.6208237021
Al	-4.57332206027	1.84958029508	-13.0856488817
Al	-3.81960755148	8.82293538348	-11.6948719578
Al	-5.88371742004	1.89825549259	-10.3899308063
Al	-4.88705917751	4.58264242697	-12.8187551423
Al	-5.99389260672	6.93761394845	-11.9066722895
Al	-3.08274160566	6.84073202183	-13.6319691967
Al	-7.51252699792	3.85391574878	-11.5964219095
Al	-6.49200937174	8.89773883441	-13.7832874447
Al	-5.39765729427	4.70872121681	-10.0953172814
Al	-7.71096563153	6.08017368473	-9.68137530837
Al	-3.26351207304	6.19968631596	-11.0257441524
Sm	-0.340451153167	5.23069775214	-12.4283438604
Al	1.57058580968	3.762519986	-7.79932502124
Al	1.8158416122	5.45262905448	-9.94938208381
Al	2.51540402165	4.22911166331	-13.5215587025
Al	-0.964641916076	5.92046439583	-9.49426171309
Al	-2.50866197957	3.61857929067	-13.8675009602
Al	2.10450452237	7.04759812813	-12.3566945827
Al	-2.35420415834	8.56341963844	-8.98670052184
Al	8.97299614745	6.46686536254	-12.5192680785
Al	6.37289840509	6.45451837326	-11.579533447
Al	5.52888193619	1.90958770761	-8.03076870215
Al	8.4441833279	7.9627144373	-10.0724939589
Al	4.38348777557	6.59527115548	14.0884597904
Al	7.50536005709	3.83247767403	-7.82861601067
Al	9.56749675522	8.99788733897	-13.0633806925
Al	5.39264017525	3.92618987953	-13.6093535
Al	6.0288970136	3.98055827594	-10.2057487981
Al	6.84903100741	8.21342378808	-13.6457846981
Al	4.0030285546	5.24634650147	-11.4881813883
Sm	11.425432668	7.54189020737	-10.4573261787
Al	13.7858580591	7.62538066041	-12.4447248027
Al	13.9908222196	5.69994616068	-10.5498906681
Al	13.1847376298	3.24043903064	-11.3516080679
Al	8.25895868959	3.74929707459	-12.6554218912
Al	11.4238809213	5.01124398267	-12.3253559442
Al	-13.8930077085	5.26503183725	-13.362584016
Al	8.88297966338	4.99958303305	-10.163292175
Al	10.3332315615	2.57163437481	-11.0875886059
Sm	-13.1570913045	8.57589964849	-9.63380761358
Al	-12.2772210907	11.62602393	-9.11545785256
Al	-13.3066285472	11.2594462995	13.6727883268
Al	13.870442498	13.4121363145	-12.1939433491
Al	-8.39102662667	10.2460858095	-12.3707981166
Al	-10.6134673381	9.69797252053	-11.0071264602
Al	-12.4370853839	-14.1288263323	-10.3416821551
Al	-12.3587655691	8.90117866521	-13.2099594098
Al	-10.2452619278	12.6140103003	-11.132941861
Al	-8.80243988918	12.8589276097	-13.6792162743
Al	-10.7227358496	10.9725131123	-13.6617472989
Al	-5.30064647949	9.94319221244	-8.11684104057
Al	-1.22230573097	8.09785355674	-11.4720218565
Al	-6.29680056841	11.7317981478	-13.6784467297
Al	-4.50868536247	12.9391679017	-11.8706531883
Al	-5.83213481616	10.4619814027	-11.2825052552
Al	-8.4748182242	13.7935850641	-8.99549372922
Al	-7.43014111867	12.9126374861	-11.4492407864
Al	-5.18346188657	7.51320375669	-9.3381722583
Al	-7.52001113304	8.73111944613	-10.1007978372
Al	-8.42197223515	11.13729279	-9.574256758
Sm	0.71596437756	12.6612863287	-12.9924221153
Sm	1.05671297637	8.43237983795	-9.46189975182
Al	-1.69338098153	10.5679303046	-12.7000632997
Al	1.56877513749	11.5331568089	-8.14204572668
Al	-1.57187768027	12.7867104678	-8.41968779687
Al	3.70948625771	7.06242977622	-8.55270307543
Al	-1.80872209794	11.9642322974	13.2174474614
Al	-2.39973604099	14.0629444403	-13.4901253401
Al	-0.448846377848	10.9503511223	-10.2293024463
Al	1.02289892353	9.60081365023	-12.3805848547
Al	-3.36520496684	11.0903383044	-9.91481609064
Sm	4.17200463351	9.34154063451	-12.2619242437
Al	5.38638878629	11.7849684385	-10.6542539079
Al	5.78154785877	8.56089124974	-9.81923023415
Al	5.88373437109	11.5079499013	-13.7101536833
Al	3.82755491208	13.0647593786	-12.7225134975
Al	8.40916593306	12.7538606048	-10.7182592446
Al	2.44817061109	11.5132065341	-10.7406063853
Al	6.47503413093	13.986023015	-12.2568705841
Al	7.38736143377	10.1914047917	-11.7558041932
Al	3.7523526855	10.0689216767	-8.93674967202
Sm	12.5052962821	10.3234929836	-12.8996339144
Al	11.3736821	13.1332113517	-11.2196639264
Al	10.644731601	12.2293137561	-8.81922262145
Al	9.52374454649	11.765429708	-13.077142253
Al	13.4192151685	13.028206921	-9.06193088307
Al	10.0446190159	10.3883262595	-10.7543628652
Al	-12.8823414298	11.2516386737	-11.7249834627
Al	11.8520022737	13.0588526254	-14.0464497995
Al	12.678509694	10.4715941671	-9.7394112526
Al	-10.5006549714	-9.82028904185	-4.74678095377
Al	-8.64957143832	-13.5004157409	-6.37358548918
Al	-11.5460640997	-13.4510912321	-5.52919116616
Al	-11.9198804832	-11.8346118457	-3.19718797922
Al	-10.632982883	-13.4111109323	-1.20948420217
Al	-8.93797032676	-10.8761071783	-6.86219651668
Al	-9.28999965737	-12.5699732127	-3.74151940512
Al	-11.8291925737	-10.8357256426	-6.9632346326
Sm	-4.57408255241	-9.8449072198	-3.626189513
Al	-3.90906614657	-12.9805476203	-3.48329938153
Al	-1.89508942654	-11.3097175541	-2.43175431432
Al	-6.14798007898	-11.907626905	-5.5346857268
Al	-7.91157856454	-10.113967635	-4.05035879133
Al	-4.23351926983	-10.0897346855	-6.77563797268
Al	-6.55718649983	-12.2664908797	-2.85713608064
Al	-5.99038715204	-13.8960791502	-7.35816195555
Sm	-3.0344677164	-13.0412820584	-6.50792531685
Al	-1.11843902908	-12.7556391182	-9.15371930497
Al	1.9364642929	-11.8637626629	-4.30363153365
Al	0.477638563443	-9.78401997426	-8.67340065259
Al	0.234994112787	-11.61133885	-6.538168667
Al	-0.769647629466	-13.2795561357	-4.40328033005
Al	-1.85529574941	-10.5462553464	-5.05490518902
Al	0.766339205529	-9.40826778722	-4.96054898833
Al	-1.43342188279	-8.68091089204	-3.13709163331
Sm	8.00677494762	-11.6161707353	-4.45651969564
Al	4.33140202528	-11.9259824984	-5.9028288978
Al	6.54336793273	-12.736776717	-7.12028480328
Al	4.43891934959	-8.08875664333	-7.94794505662
Al	6.04958270119	-9.85098793501	-6.53568137357
Al	2.68542309718	-9.99063900217	-6.94866320412
Al	5.36515762382	-12.2192518095	-2.71559846536
Al	3.66806747699	13.1046913393	-8.57003309719
Al	4.71537725564	-11.2018337467	-8.75585279924
Al	12.7923234132	-13.7457301753	-3.55960460913
Al	11.216819945	-11.1035543344	-6.01252458986
Al	13.5278327305	-10.363190473	-7.55266453489
Al	10.0662618812	-14.0173615624	-3.14357602035
Al	9.02167865362	-11.8009444009	-7.50365411831
Al	11.105168114	-11.3050682	-3.14934231127
Al	8.74715210565	-9.26394377616	-6.66752684523
Al	-13.99696942	-11.8675927634	-5.18868409227
Al	12.9889474011	-9.42278794869	-4.70329178988
Al	10.2837623197	-13.6136167604	-5.81750213727
Al	-12.8380261156	-9.23198004312	-3.48345190595
Al	-13.4232424972	-13.0117642407	-7.76469241156
Al	-12.2153524848	-6.10566236504	-7.87920898739
Al	-10.2840899089	-8.3004744868	-7.28412379804
Al	-11.2116333807	-7.0465042808	-4.67652525692
Al	-9.48741519666	-5.00888351698	-3.73597803485
Al	-9.80204106734	-5.53746144346	-6.66739045812
Al	-8.4825682837	-7.43756596409	-5.09269657365
Al	-13.863393449	-6.8248046989	-4.03350008784
Al	-9.42251562383	-2.8854429575	-5.90685741
Al	-9.15361753234	-3.56996592716	-8.64343725852
Al	-9.54771567974	-8.01199420266	-2.61011968946
Al	-12.9974100531	-8.51161094267	-6.18036150118
Al	-12.0433019964	-4.38244168935	-5.66219207967
Al	-2.94115033146	-7.85013237882	-5.50168439526
Al	-5.44653883423	-6.69988505034	-5.16785283756
Al	-7.57302358732	-6.79169064899	-7.74353304646
Al	-6.91234456412	-5.02490522751	-2.19551633363
Al	-5.6736475263	-4.86708709806	-7.52913246373
Al	-7.37983781965	-4.77541388059	-5.48377996601
Al	-2.56417827252	-4.19414023962	-4.81057101666
Al	-4.91805380341	-2.7809141786	-9.58076915297
Al	-5.08366770257	-3.87912100299	-4.07237502802
Al	-4.91095445213	-7.61281447578	-7.68662994548
Al	-6.71866508781	-9.15868871255	-6.29300981988
Sm	-3.63155142885	-6.43895712123	-2.58512224442
Al	-0.835916444278	-6.20078251003	-4.18954563252
Al	0.82059044602	-5.49723767541	-6.15778333302
Al	1.63039202921	-2.96079320932	-6.69712905153
Al	-0.231595545416	-5.63735004851	-8.76699442601
Al	-2.3980365852	-4.22237847283	-9.64649280715
Al	-1.06418801254	-3.47580150662	-7.15672583986
Al	1.46789062281	-7.542517892	-3.18943719012
Al	-2.85909687752	-5.69415663462	-7.22884480547
Al	-0.600479876076	-7.81670503639	-6.77073530382
Al	1.7333228517	-7.43260903699	-8.21143271131
Al	7.04147085606	-7.28057354861	-8.26321980137
Al	5.19067167311	-5.19145758995	-8.13087536386
Al	2.47923822277	-4.87260783692	-8.40386776005
Al	3.58548487601	-4.81674225539	-5.80346561947
Al	7.37280569439	-8.65471181399	-4.26365408299
Al	7.76317006272	-4.39897916171	-7.97394040812
Al	5.61549034389	-7.02113903563	-5.69756171795
Al	4.11916558682	-6.28794733783	-3.23907683562
Al	6.2340009979	-4.31428465116	-5.40301612835
Al	2.78359173475	-7.41808393674	-5.63552949658
Sm	8.95138118252	-6.19862503519	-5.88634983613
Al	10.8322625182	-4.02055755699	-4.336261126
Al	10.545297451	-3.66037288057	-7.12003519204
Al	13.5692419993	-4.27224800543	-4.78648900406
Al	11.4546914138	-8.30245727816	-6.75778795538
Al	9.82289824742	-6.43806712832	-2.7252072151
Al	13.6074051171	-6.43297833701	-6.79469431764
Al	12.0905187459	-2.02456947044	-2.84781672368
Al	9.64308544079	-7.97454806506	-8.86249122845
Al	11.8353989355	-6.61687488573	-4.56929068632
Al	10.2500402727	-8.88332564797	-4.376062206
Al	-12.3119219667	3.31786187169	-3.81933529197
Al	-9.18199353298	1.82901719654	-6.89490909424
Al	-11.8029242691	2.24511078619	-6.42473032302
Al	-13.2367966851	-1.94118446189	-5.20332268302
Al	-8.9317499476	-0.855261771842	-7.94595199497
Al	-9.66099178676	1.59251663561	-4.15766167795
Al	-9.98921804961	4.16811656797	-5.04978474236
Al	-10.8491538878	-0.384861490029	-5.85074015097
Al	-11.1593692583	0.573061342479	-8.70710105921
Al	13.5175066912	2.59789619801	-3.01024806172
Al	-10.9129205743	-2.33106385756	-3.63524921513
Al	-3.89280364849	-3.04093469195	-6.82814971581
Al	-4.63414556725	1.46702172497	-5.83955995752
Al	-7.54658795268	-2.72106644578	-3.68956256409
Al	-4.61685616142	-0.574064179353	-7.73643843217
Al	-6.77902694887	-2.39095678155	-7.27161539685
Al	-6.9100232758	3.12805167026	-5.89247355038
Al	-8.05339449127	-0.496656377657	-5.38877511259
Al	-5.29098261649	-1.22112481207	-5.07715737037
Al	-4.77326917604	2.97853141186	-8.07023545503
Al	-6.70213326042	1.09259843559	-3.76787020503
Al	-6.77962542862	0.976418544753	-7.69185459971
Sm	-2.11162985881	-0.691663116623	-5.54600649888
Al	-0.126387183429	-3.04973491548	-4.55693448924
Al	0.0640486730272	-0.844391899693	-7.69608169946
Al	-0.047092051631	1.61458031208	-6.67174529143
Al	1.05679119919	-0.610162267146	-5.10538002062
Al	-3.78549593402	0.708355512825	-3.37136614008
Al	-2.29878779857	-1.62128922167	-8.78119339919
Sm	8.11800015843	1.54701869826	-3.12815467916
Sm	3.14360622107	1.97328904567	-5.89659034647
Sm	3.74237243035	-2.08779664979	-4.35723432487
Al	5.78449556726	-0.00864088180228	-5.6818260926
Al	6.48027276365	-1.26490778044	-2.97259197515
Al	5.21497080348	-2.49356220737	-7.23131979921
Al	3.0780116383	-0.834058813791	-7.2221933918
Al	4.867123871	1.05808048278	-3.34360967124
Al	6.94407289052	-0.389716979791	-8.18505548396
Sm	8.28771722489	-1.93421922566	-5.85005099019
Sm	13.8691196297	-3.45875672853	-7.91783341737
Sm	-13.9334400005	0.0691081307108	-7.37997422783
Al	9.12759411959	-1.5016988757	-2.42672748526
Al	11.5057138116	-1.29141054055	-8.14471433915
Al	11.5089770162	1.20924614018	-6.61025996724
Al	8.46444045139	1.29963933173	-6.22737481665
Al	10.3350878011	-0.194623558938	-4.56719509996
Al	12.1593176885	-1.95618597715	-5.65347360656
Al	13.0002879341	0.222641836906	-4.28998885275
Al	-13.5943861768	7.42513410584	-5.88617693138
Al	-9.44307448502	5.43737955926	-7.45753771347
Al	-11.1943442287	7.68479560452	-7.03121795179
Al	-13.9200476275	3.36728351613	-8.43230039538
Al	-9.91586578053	7.21788084722	-4.73983172215
Al	-12.3150540001	4.96543611828	-6.33735262749
Al	-12.0650535975	5.65138470895	-8.94508744805
Al	-10.2612966354	3.8332677562	-2.19028875713
Al	-4.01047158305	7.75192388415	-6.93737071023
Al	-4.87567817732	3.2988968354	-3.43398443731
Al	-7.74064474108	5.6534592868	-5.08192428588
Al	-4.28506776005	4.4523338051	-5.75915583767
Al	-3.37497699136	5.47850374169	-8.26063271326
Al	-7.73202207787	3.47163770103	-8.73914385688
Al	-3.38708221773	5.70012432821	-3.08295284816
Al	-7.71507749848	3.65527276056	-3.27338167699
Al	-6.16698356691	5.51832024196	-7.40907216032
Sm	0.228867702479	6.78421411166	-3.58680513758
Sm	2.43616256625	3.88606083238	-2.81712934189
Al	-1.89994075798	5.60190409943	-5.64122389779
Al	0.00940118709547	1.74627604735	-3.98073571934
Al	0.535322979785	6.2186869587	-7.24021378064
Al	0.212287438368	2.52166257663	-1.23756142424
Al	0.374982812198	4.04227058015	-5.37036789578
Al	-1.0759455931	8.09808256894	-6.42019283139
Al	-2.28896023208	2.64488778945	-5.14355720962
Al	-1.30555365822	3.7872757976	-7.76793033287
Al	-1.05102962558	4.14524126008	-3.03271299262
Al	6.32443395752	2.72770260762	-5.44254533047
Al	4.82029973619	9.3825611519	-4.21861963271
Al	4.86018857841	4.67929538938	-4.50113854912
Al	4.7005080865	4.50943435802	-7.47287637476
Al	3.51550515488	6.97363600858	-3.70844262851
Al	4.87862381539	7.0637495328	-6.09294867447
Al	6.62465373637	6.4008729894	-8.49154468457
Al	2.61515521596	5.47441470943	-5.78179230461
Al	7.06645417356	5.56137623507	-5.8314444507
Al	9.08786557234	6.73499760849	-4.46004426149
Al	6.27827842637	6.91912919286	-3.54217274668
Sm	9.78165707422	6.34848681199	-7.46325287388
Al	11.9853762646	6.87597672052	-5.31731836258
Al	11.7256353947	4.5248671506	-9.41253362601
Al	11.7878514151	4.21246530867	-6.33207679998
Al	11.057523827	2.47104039026	-4.1684628089
Al	13.8807344079	2.59702643878	-5.72811317386
Al	9.14155064367	3.90252286014	-5.35266740729
Al	13.4157099294	6.00405062899	-7.84697907947
Al	13.71284918	7.52184888332	-3.16606861163
Al	9.99134583603	3.03419265656	-8.10433004444
Al	13.824637149	5.04764228367	-4.55318925626
Al	-13.3129118599	12.7534100498	-6.73629877794
Al	-9.87642816825	10.0166284964	-5.2809073896
Al	-10.2681016195	9.99602883108	-8.07233332186
Al	12.544781565	11.2486523197	-6.98286451943
Al	-7.593396331	8.21941489048	-3.68401006671
Al	-12.1907914952	8.94468449591	-4.11084416965
Al	-10.5145580783	12.6714008786	-7.1906443071
Al	-9.59728662597	12.9911436416	-4.48967170766
Al	-12.9277266539	10.0104968103	-6.78758021363
Al	-12.0117953963	11.7545757985	-4.69851912496
Sm	-7.75803495858	8.17601066808	-7.02297091262
Sm	-7.51288981054	11.7340772587	-6.58208856996
Al	-5.99740630113	11.0250362169	-1.61505910908
Al	-5.59886894812	9.76551230466	-5.07098050203
Al	-5.04176697697	8.35330038235	-2.60722523782
Al	-5.39458470033	6.87104760154	-4.91060532038
Al	-6.97290376096	13.8157252093	-4.28813058153
Al	-3.61913038433	10.5618120201	-3.15549050708
Al	-2.47663881718	12.9964888132	-3.09180007816
Al	-2.89389812423	8.03700217373	-4.40400631513
Al	-4.10817932165	12.3206207076	-7.32487457321
Al	-4.65564132077	12.6109749562	-4.73365070096
Al	-3.02989757458	10.1830846743	-6.07624503562
Sm	-0.521587984283	10.1464799602	-3.73062754632
Sm	2.20388192379	8.93561741245	-6.03181005989
Al	2.7463004908	14.1262493401	-5.82729570582
Al	0.279738564258	14.0844505412	-7.07429249434
Al	-1.71739359774	12.5299038112	-5.62186403093
Al	-0.635931368581	10.470059839	-7.31488458975
Al	3.85965183222	11.6139988914	-5.98386901568
Al	1.02974404183	12.0498052248	-5.50105098294
Al	6.14209653178	14.1318503719	-9.46778398329
Al	5.47056255586	11.8055726272	-3.23700303678
Al	7.61448628891	8.29892910283	-6.25239248331
Al	5.97048911913	12.7914213078	-7.1113238564
Al	5.33036591799	9.5392392865	-6.9491823952
Al	7.91010814791	13.6446981228	-5.19355853069
Al	7.14158790229	11.0010292961	-5.43115076428
Al	2.62772890321	11.459088661	-3.51222145932
Al	5.31194235142	14.1033224298	-4.7303879615
Al	8.5289997573	13.7621535135	-8.00328375489
Sm	10.4016597134	9.43081616608	-4.89358972446
Sm	7.64033829743	10.6427579061	-8.57377986039
Al	8.92279927966	11.7854820454	-3.27047423438
Al	10.3072696477	9.42430130316	-8.09601720112
Al	9.59688958642	11.8743053035	-6.40434304772
Al	13.4707555334	9.96228625319	-4.61217028811
Al	11.637126612	12.3858307528	-4.73145138645
Al	12.7114160773	8.57944716484	-7.43500550482
Al	12.8115559992	-14.000434153	-6.39061197365
Al	-10.7092184603	-8.40793846921	-0.0550582353637
Al	-11.5637573318	-13.7567708973	1.68380221956
Al	-9.7678455557	-10.6634454667	-1.65453054408
Al	-10.9963918455	-9.06509494783	2.74823845806
Al	-12.9238789169	-11.5548209641	2.69869054186
Al	-10.9541166945	-11.2219280083	0.80129032219
Al	-13.1548394802	-12.6966652859	-0.468554991975
Al	-12.6762109483	-10.0071786284	-0.988821289024
Al	-13.3933470137	-8.47724547562	1.17487068555
Sm	-8.25039346627	-9.78269986893	1.37998717395
Al	-5.08545414647	-8.48730753709	-0.574122856136
Al	-4.46893696607	-11.5008074224	-0.843803287545
Al	-8.93600819383	-13.2772404783	1.39087474572
Al	-8.29022570463	13.5883077979	-1.84515789186
Al	-7.08567790973	-9.98093627066	-1.46168988517
Al	-5.06697930379	-9.87739928721	1.81338520144
Al	-5.34092091029	13.7675885832	-1.7151707196
Al	-3.18192442761	-11.9281299361	1.92981737789
Al	-7.11440209491	-12.463067206	-0.264051778881
Sm	-2.12465439507	-9.43023541734	0.0465309113093
Sm	1.80851829743	13.905515748	0.0482053358475
Sm	-2.10730454908	-13.7234047017	-0.523561747025
Al	0.80564163224	-9.96692404063	-2.13115031104
Al	0.344050109379	-11.4587016765	0.280476430097
Al	-0.695090859958	-13.226714669	2.22958405488
Al	3.20888154476	-8.77299040015	-1.15284495318
Al	-2.45278953805	-9.7734874115	3.4215483478
Sm	4.11874311541	-9.58062321377	-3.9239576756
Al	2.96541451651	-10.273260144	1.12498182441
Al	4.32950462764	-12.642964774	1.01698915591
Al	6.32476654678	-10.8045857231	2.10067606068
Al	1.84948820059	-12.3446152571	2.50371243187
Al	2.93047682207	-11.6986485782	-1.43664552763
Al	7.95046345487	-10.1200063211	0.167842073745
Al	9.2285631916	-12.7439933243	1.31778037258
Al	5.25632588953	-10.4753343768	-0.519435212324
Al	6.82859597354	-12.7368340488	-0.130477348216
Sm	12.4910460645	-8.42286754604	-1.71594721042
Sm	11.9957403669	-13.3955123505	-0.499766846306
Al	11.8567696523	-11.9317599325	2.3725466239
Al	11.145080568	13.6299940188	2.45782390607
Al	11.3293647582	-8.19447141648	4.12754006629
Al	9.16667750826	-9.36625439909	-2.05951022726
Al	13.4519501506	-10.7324605053	0.547838113912
Al	9.65762562874	-10.4293675929	2.92111569701
Al	9.07866837415	-12.1182949378	-1.46372899376
Al	12.6987302924	-13.5013721077	4.44185515914
Al	10.7308478333	-10.4313745742	0.132162774905
Al	13.6869739716	-11.3303068172	-2.4411513287
Al	-10.4150860694	-5.04591993407	3.59054130191
Al	-9.32243710565	-3.34494354569	-1.46735489394
Al	-12.8422705506	-7.10117748219	-1.35286811453
Al	-12.1257681224	-4.95525502752	-2.98741128049
Al	-12.6748085487	-4.196114825	-0.394642434002
Al	-12.0962173277	-6.11659884732	1.54788187252
Al	-10.3001174502	-5.81277452166	-0.904892609791
Al	-6.57878847861	-7.27219580832	2.25730978408
Al	-7.79316731695	-7.29143632363	-0.482199118107
Al	-6.68980305488	-7.64543246258	-2.96209367789
Al	-7.90140580337	-4.73874219337	0.559780809872
Al	-6.80229264727	-2.59214697242	-0.66366708301
Al	-2.91383149726	-1.95814632789	-2.92885672214
Al	-7.7147499673	-4.83540651973	3.30016645503
Al	-5.33770536258	-5.74622924326	-0.000888850407353
Al	-4.1727868478	-3.64703872132	-1.34715487942
Al	-9.38470483315	-6.78120717529	1.72361360918
Sm	-2.15167592421	-5.1791640113	0.794633334629
Al	0.875867169376	-8.67027379073	0.45045013382
Al	-3.86440133532	-7.42953587441	1.75596901845
Al	-1.38298042316	-4.17069751802	-2.26691515715
Al	2.35586065529	-6.27919159687	-1.00105648237
Al	0.673680355672	-4.28060902378	-0.573754055385
Al	0.878643341704	-6.14168272048	1.41343037174
Al	-2.98690492833	-5.72808057614	3.82278770891
Al	1.64509626744	-4.79237243742	-3.4961591947
Al	-0.521432272868	-6.83337600528	-1.30420968798
Sm	7.74579269374	-5.47148378369	1.9693729574
Al	6.96498210909	-6.21891256581	-3.25972946966
Al	3.10610537965	-4.57756275696	1.17441200038
Al	5.93038169235	-8.26941463117	-1.85201974106
Al	5.26005419789	-5.80338322388	-0.465610170895
Al	6.07062609634	-8.1538806273	1.08939224604
Al	8.05566908316	-7.23071263798	-0.68816403557
Al	3.261595006	-3.77365205886	-1.62801728809
Al	5.69396851211	-3.87088329904	-2.68973909859
Al	9.42058237137	-8.13809997407	1.49258623457
Al	8.32282962693	-3.90641546511	-3.52706256716
Al	10.4245542914	-3.81758935334	-1.50272325266
Al	-14.1418896568	-3.99930869143	2.17443355965
Al	10.6036498023	-6.1746327094	-0.0678750114056
Al	10.8692850175	-3.67933226529	1.26022665268
Al	12.0801034872	-8.23931590361	1.40526653433
Al	13.4180091348	-5.98136672321	0.373182258348
Al	12.8858120088	-5.17630751748	-2.2578563887
Al	13.1180540566	-3.11405766108	-0.299186441188
Al	-8.65947032518	-0.482678187608	0.240424118554
Al	-11.6691258818	0.755500023958	0.636074818968
Al	-13.5050427258	-2.67396843092	-2.57848251449
Al	-12.1399369793	3.12736419691	1.97130821049
Al	-10.5035135831	-3.61149329659	1.22076058314
Al	-12.7256767444	2.90181401794	-0.798212269828
Al	-11.1433062505	1.02378908878	-1.98132260842
Al	-11.2736998778	-1.58094133028	-0.8446293259
Al	13.9688505822	1.5811730509	1.55622341594
Al	-12.6899927979	0.599268325493	-4.14500530977
Al	-7.76430829026	-0.0220920789659	3.04011410927
Al	-5.59128963266	-1.11227610273	-2.36992122629
Al	-7.09531933235	-2.49639056297	2.01020741431
Al	-2.61940301809	2.47907894388	-1.65538631859
Al	-7.42741089971	2.13259860889	1.08390166341
Al	-8.44006954884	1.72396222106	-1.45055260207
Al	-8.9058793623	-0.714386935495	-2.52915294587
Al	-5.87346025346	-0.195006505867	0.820406631653
Al	-3.94980304826	2.17698423867	0.761238434369
Al	-5.659486604	1.6507536102	-1.30386673729
Al	-4.29449673867	-2.45760795985	1.04075731435
Al	-9.9229327503	3.19626215235	0.408110414396
Al	-3.53963944676	-0.167819735906	-0.677136177443
Sm	1.69348198484	2.7875622085	1.70045309582
Sm	-1.21566239628	-1.96469257502	0.0580341716776
Al	1.09235745895	-1.98380968571	-2.36321672266
Al	-1.0744693517	0.0198722809396	-2.30697711641
Al	-2.96575553706	-0.162189886632	2.29973614461
Al	-1.2096994784	1.09496388961	0.639361980648
Al	0.619490382291	-0.443510344847	2.06742225393
Al	2.21638274527	0.699412993014	-3.04237896943
Al	2.12081888636	-2.16353759322	0.368457818067
Sm	5.43797859591	-2.60484383753	0.24459847733
Al	3.67115808341	0.0497501789602	1.21912604986
Al	3.55573429881	1.86297060798	-0.759417890773
Al	5.13546120165	2.30325859289	1.79757583376
Al	7.78882915605	-4.53765042925	-0.976287084507
Al	3.45091847148	-2.14764032126	2.78081496449
Al	8.86875261797	0.452003608987	-0.254415204334
Al	6.02021976883	0.444268397972	-0.766524021295
Al	1.24507955765	0.228223757065	-0.50063599067
Al	7.13055905329	0.0735589443677	1.73701777145
Al	5.52306395848	3.40498431222	-2.19774915973
Al	3.72213347227	-0.878954875456	-1.52348384973
Sm	14.0749894613	-0.053819728964	-1.11777115489
Al	9.89507792833	-0.940119629223	2.20092538204
Al	11.178012849	0.717662256049	-2.06426764238
Al	12.700061123	-1.22559594931	1.89637066134
Al	12.7454480109	2.83278936655	-0.565724696419
Al	8.4801425763	-2.39170643959	0.47330529319
Al	11.3316836793	1.11247870151	0.98861403201
Al	11.0216439943	-1.36201549655	-0.314456126049
Al	-11.9032241969	6.02106115311	-3.47526295579
Al	-10.184516585	7.98670309689	0.21177745011