9760
56.568542495 56.568542495 56.568542495 LAMMPS data file from restart file: timestep = 620, procs = 1
Sm	-25.8386748536	-24.5215795222	-24.1269806694
Al	-23.1657628008	-25.5751183833	-25.359059574
Al	-28.2545082551	-23.7064806675	-26.0326847795
Al	-26.6296235728	-24.9516664893	-27.7667496403
Al	-27.4127049902	28.0937369511	-27.1271094329
Al	-24.4701249779	-23.5718452508	-26.8508770421
Al	-26.1337405789	-26.6819145197	26.6963697299
Al	-25.3552482515	-26.8759479568	-26.404596953
Al	26.295323904	-22.7508009189	-24.5223202982
Al	-20.6456155818	-26.4217847427	-26.9149906343
Al	-18.4046489654	-27.2351899343	-25.4088865919
Al	-19.5217731608	-24.0745158685	-25.8177041538
Al	-25.0183298974	-23.5110914096	26.9847540793
Al	-17.9797885653	-25.5418798907	-27.6824237704
Al	-17.7471772408	-25.8329977457	-23.1370437637
Al	-19.833835271	-23.9046398376	-23.2121698245
Al	-13.6291456227	-26.2040884237	27.6555198238
Al	-14.9515152514	-25.6707064421	-23.8313223704
Al	-13.1434175267	-25.8560234382	-26.1415535308
Al	-12.6970752832	-23.4110087623	-28.0315459787
Al	-11.5797535955	-23.4442241042	-25.4273081933
Al	-15.8116382916	-26.7594200216	-26.4311164875
Al	-14.3018925704	-28.262753006	-24.6340976575
Al	-10.4786826609	-25.5967706387	-26.8830387588
Al	-10.2100259786	-23.0444413121	-23.0821237177
Al	-8.91673941151	-22.7824555669	-25.704547777
Al	-9.52237470027	-25.4758956244	-24.3640340028
Al	-8.64745753366	-26.2760732185	27.5281091829
Al	-12.1377871225	-26.6769629181	-23.6111311105
Sm	-7.00439652131	-25.2844630142	-26.4570975607
Al	-5.25334718291	28.2085261803	-25.725415253
Al	-4.65384751951	-23.8952571247	-24.4789528124
Al	-2.77543292819	-27.9284542157	-24.0449167824
Al	-3.80480225253	-26.0122583932	-26.0553534559
Al	-5.24286389407	-26.477857317	-23.625084725
Al	-4.74313583979	27.1930033571	-22.8392285716
Al	-6.53784327972	-27.9577111587	28.2635639904
Al	-7.27003485154	-23.8637243051	-23.6506934073
Al	-7.5614768694	-27.6746942814	-24.4854729112
Al	2.14917682221	-25.1639655137	-27.6597149259
Al	0.777466762182	-23.3518397406	-26.1546304599
Al	-1.13594943539	-26.4584452026	-25.8257029515
Al	-2.40749693678	-27.1358510979	28.2571172991
Al	2.39371277012	-26.9857508547	-25.5742262199
Al	5.03223178873	-27.2597134782	-23.8259211261
Al	3.18023262794	-22.4645217193	-27.3395727271
Al	6.73325138539	-21.5749207283	-25.8740584462
Al	6.10110224816	-24.6436064215	-24.0145218762
Al	7.87293693366	-24.096615502	-26.2948381054
Al	4.8845242181	-24.5154497517	-26.5260806688
Al	4.18373392394	-22.4165715095	-24.8181352619
Al	4.42870961544	-27.0533417188	-27.4463993974
Al	3.38469591632	-24.9509923062	-24.074283515
Al	5.96653888021	-22.7053493267	28.2476543546
Sm	12.3691287917	-25.8705837011	-27.7836365493
Al	6.6704705534	-26.7491667356	-25.9724462859
Al	10.5721025946	27.590432174	-27.3551875349
Al	8.57320605923	-23.5826135014	-23.6121850293
Al	10.6249300801	-24.492468832	-25.3501951081
Al	8.42806906524	-26.5399296457	-23.971566519
Al	9.31491624499	-26.4550696811	-26.9302519756
Al	11.1560075991	-21.1699906542	-25.6039397462
Al	18.1230449317	-23.890873123	-24.7510170652
Al	15.7917103975	-25.2606433862	-23.7147733534
Al	13.2000037915	27.8091829268	-26.8311412225
Al	14.5254577284	-27.013820335	-25.2971097817
Al	15.2385848786	-24.7420995832	-26.6375365088
Al	17.3606437076	-26.2973557784	-25.6926930584
Al	17.1137424181	-23.8155667944	-21.9018724356
Sm	20.9150066704	-25.4441080899	-24.9993079073
Al	22.5047628899	-23.7161937261	-27.2769994562
Al	21.7435935691	-26.4115245606	-28.1031944452
Al	19.2556308112	-27.3477498516	-27.2925929026
Al	18.4994452984	-26.1392102695	-23.0002236787
Sm	27.0624130197	-26.2476022743	28.0910819416
Al	23.9722034243	-26.2017847943	-26.544366985
Al	26.1432825137	-25.43516054	-24.9972304916
Al	23.7848229242	-23.9491751891	-24.7877935519
Al	25.4682163886	-23.8069770272	-27.0145108301
Sm	-26.2052868751	-19.0239326749	-27.6479629764
Al	-23.2287100321	-20.0582063294	-26.0092028325
Al	-25.3669642187	-21.4072260515	-22.992796779
Al	-27.4186076834	-19.628234593	-24.7078347765
Al	-24.8927781924	-18.58763349	-24.6539511426
Al	-25.9217760037	-18.7179750033	-22.2681076939
Al	-25.5928779184	-21.4840350382	-25.6082661135
Sm	-20.6290972278	-21.1601834705	-27.3490419061
Sm	-18.1251600597	-21.4757319726	-24.4294552564
Sm	-22.5646590878	-22.7275198441	-24.1975156141
Al	-16.830259473	-24.3233849485	-25.3818463947
Al	-23.0557864462	-19.805672616	-22.7535977449
Al	-22.8315758898	-18.6170334014	28.2242326871
Al	-21.8551698195	-23.9137863755	-26.998829582
Al	-17.3678468004	-19.9962942605	-27.2406373897
Al	-23.9708464056	-21.1429927557	28.1021200468
Al	-20.9669606262	-19.9816370684	-24.5152072164
Al	-15.2968571639	-20.5699839575	-25.2549904622
Al	-15.0295067484	-21.871115031	-27.7808406673
Al	-15.1319895895	-20.1601196797	-22.506711217
Al	-12.9574888614	-21.627278793	-23.6014689921
Al	-14.5561330354	-19.2029858729	-27.8624478989
Sm	-8.37394863866	-19.3255417315	-26.264320063
Sm	-11.7141801393	-17.720120576	-27.6457444792
Al	-8.11673221931	-21.1943632016	-23.5591200787
Al	-6.27094678458	-21.9439646949	-25.4430547581
Al	-9.26942437298	-18.8418271523	-23.2180380678
Al	-10.4207075817	-21.2080121969	-27.5018563817
Al	-11.3451312436	-17.0651534864	-22.6800846418
Al	-12.8277311448	-20.9256807408	-26.4263363859
Al	-14.2921091878	-23.3733710438	-25.6340138147
Al	-10.7179541295	-20.6240700038	-24.6758437732
Al	-13.1028005533	-18.855948458	-24.6469013583
Al	-6.43690636666	-18.9494659545	-23.5410973118
Al	-6.86461056566	-21.8861216805	-28.0568931098
Al	-3.36357870945	-21.2834468366	-25.3301641089
Al	-5.3073928742	-19.5467722697	-26.0785854807
Al	1.65931667687	-20.674383523	-25.3479734499
Al	1.00288623097	-22.167385947	27.6331899844
Al	-0.590827233929	-20.8909427142	-27.0522014195
Al	-2.02832868968	-23.75501184	-25.8937817489
Al	-0.784593710753	-21.8675977942	-24.3688339933
Sm	3.57709874303	-20.1269635225	-22.6998586311
Sm	6.38807382237	-18.55640418	-24.7255716309
Sm	2.20361658958	-17.4378778744	-25.2925255402
Al	4.10297106737	-19.9728409256	-26.2096208724
Al	1.95409990626	-19.527186799	-28.0801726245
Al	6.27984858848	-21.7401236932	-23.2088520333
Al	4.57347951364	-17.4405853481	-27.5186057528
Sm	14.2574656151	-20.4043706202	-27.1710335189
Sm	11.3731013369	-22.4487634064	-22.6370587893
Al	11.1158092188	-20.219524054	-28.1749567505
Al	8.95093953993	-19.4902233156	-26.5630453458
Al	11.7438676514	-19.3640123	-23.5494599614
Al	8.7001456724	-21.9115389528	-27.8175159788
Al	11.1886292406	-22.976198051	-27.7385135474
Al	8.82238688747	-20.7771963834	-24.094606126
Al	13.1432057189	-23.0413771703	-25.6506613056
Al	14.6183499071	-22.7868659628	-23.0837818953
Al	17.2538136448	-23.0932597572	-27.6145888289
Al	16.7930127846	-19.8118173611	-25.3611218506
Al	16.7432318382	-17.8121870447	-27.7670724642
Al	15.9443164073	-22.3754008887	-25.3821606438
Al	14.3487574994	-18.8797598506	-24.4590780125
Al	17.4300987901	-20.3631724207	-28.0062980231
Sm	19.6688962281	-21.515498064	-25.9236648293
Al	19.1223890036	-18.4516861912	-26.2853521871
Al	21.8839584657	-22.1743317768	-23.9842960777
Al	22.0530846957	-18.6380723668	-26.7727294331
Al	17.5757324661	-21.528813625	-23.2398114687
Sm	23.9438720379	-21.0228982304	-26.0002822379
Al	-27.8697856047	-22.0845028257	-23.6586894332
Al	24.7797762206	-18.2144783709	-25.7386083679
Al	23.8549786305	-19.2520733935	-23.1189077696
Al	26.4237251232	-19.9758711817	-24.2932634354
Al	21.4420770997	-19.346463501	-24.2712192816
Al	27.3331050929	-21.1180781622	-26.7135154477
Al	27.4463360691	-18.2986342044	-26.4651457317
Al	24.5017747365	-21.910062537	-22.8158899666
Sm	-27.2000504497	-16.4210020726	-24.7681787453
Al	-23.8245909269	-12.9159604401	-23.2722370142
Al	-24.242551281	-16.6535725014	-26.3806586473
Al	-24.4592296196	-15.8434634293	-23.4517407496
Al	-25.3606185493	-13.9930293487	-25.3344430146
Al	-18.8165268462	-18.6231712423	-25.4100947028
Al	-22.4000956245	-17.4895097216	-24.0915151182
Al	-19.7793060883	-13.444250674	-24.2070886733
Al	-22.4129229606	-14.5055967075	-25.5165275387
Al	-19.9343030575	-16.1791313007	-24.690911989
Al	-17.5243779022	-14.7273496455	-25.4925422766
Al	-21.1534925854	-17.8874107295	-26.4896190861
Al	-19.9035608947	-14.2800835919	-26.9827414492
Sm	-15.8098395646	-17.3578051017	-25.7821939058
Al	-17.1419082285	-12.5750545286	-23.659186913
Al	-14.0980004032	-14.9280766929	-26.7567905501
Al	-15.1651309489	-14.6588827288	-24.0389779901
Al	-18.0879753817	-12.0946447115	-26.3710989474
Al	-14.666812213	-17.2736408191	-22.6067018853
Al	-17.1489778655	-18.5438133157	-23.3579146653
Al	-12.8443684402	-16.1937575386	-24.7986292213
Al	-14.5098190526	-16.4491210119	27.649891068
Al	-10.847715695	-14.4653853018	-23.5972368791
Al	-8.5919729358	-15.9927042897	-27.2420838003
Al	-8.59393413585	-16.368275174	-22.5834887661
Al	-10.3399769799	-11.8037569816	-25.2482084555
Al	-6.87971625502	-16.7723530682	-25.1924405794
Al	-11.0015453554	-14.6220943825	-26.27733776
Al	-9.91234169355	-16.8192071613	-25.0257544
Al	-8.71725152206	-13.0960824211	-27.1079837668
Sm	-7.80907573953	-13.9430187435	-24.2080237706
Al	-6.17814868199	-11.7736334512	-26.0017438065
Al	-3.33572895141	-14.7939354122	-26.9546714122
Al	-6.18139665372	-14.4951549728	-26.945875361
Al	-1.8674293678	-16.6135111459	-25.4507209488
Al	-5.61708144473	-16.1867656908	-22.8485000022
Al	-3.80531049171	-18.0717503425	-24.2174793067
Al	-4.69062285403	-14.084047433	-24.6594526846
Sm	0.0204383544511	-14.6724533391	-26.9709567582
Sm	-3.25083527891	-11.8730686236	-26.8517643724
Al	0.191224870879	-12.0738436303	-25.1484729336
Al	-2.70201018488	-19.0185466835	-26.9294144516
Al	-0.090971925973	-17.864012415	-27.3182314872
Al	2.02298882914	-16.7803156805	27.7982673705
Al	-0.734142483086	-19.1451289821	-24.9695192289
Al	0.152099780933	-15.2991698318	-23.8147633224
Al	2.38396316663	-14.0385999927	-24.7778046677
Al	6.4197871303	-15.441586567	-22.9139549848
Al	3.25355874845	-14.8467257577	-27.2857115138
Al	4.81903708363	-12.5840186505	-25.8161317925
Al	6.0994912736	-14.9033819059	-27.6623788566
Al	7.05851093052	-12.9014308181	-24.3317559348
Al	4.80682016513	-15.5511430299	-25.1675644623
Sm	9.62939252775	-14.5894328526	-23.2736934014
Al	9.59705481914	-17.8760148404	-24.3963249746
Al	9.93741988383	-16.0653441877	-26.3826560008
Al	11.420935398	-13.7055654378	-25.9424244183
Al	7.52668542945	-15.7248259708	-25.2741026627
Al	10.9025187937	-17.134174636	-21.9099125212
Al	11.7796968435	-18.4372512047	-26.2588861036
Al	12.1693261211	-16.329312876	-24.5356800068
Al	17.1932524677	-17.2012365591	-24.7518808705
Al	16.7217012315	-15.2228892531	-26.6509378122
Al	16.2804812245	-12.5048793502	-25.6105392701
Al	14.2283803529	-13.5542518165	-23.8945863529
Al	14.917775753	-16.0919902881	-24.0414105282
Al	14.0822642434	-14.4015466204	-26.3556947095
Al	15.686256861	-13.067980365	-28.2117838608
Al	14.7191795203	-15.7879980549	27.8270871051
Al	17.5994318745	-14.6422232101	-23.9650951952
Sm	22.9625123688	-16.2729391327	-24.2904695542
Sm	19.1295045707	-13.1609759692	-27.4587865287
Sm	20.0368938675	-18.6570017981	27.4167248279
Al	20.4151186785	-14.1952805451	-24.7081543404
Al	18.6359310739	-15.9711152445	28.0131735152
Al	22.3518948147	-13.8566006717	-26.5947478292
Al	19.9261375111	-16.7906430312	-24.2072469178
Al	20.779319492	-16.1832243513	-26.7786972265
Al	23.0031461167	-13.1387597616	-23.7912338153
Al	-27.6898594052	-13.6099352788	-26.7722511161
Al	24.9964759449	-13.9440310549	-25.6570698542
Al	27.5602244621	-13.791404106	-24.310160754
Al	27.9909078668	-18.2027482528	-22.6175366216
Al	26.3768776652	-13.4653583481	-28.2134298647
Al	26.987361033	-15.6433221696	-26.8244309487
Al	26.2163361868	-16.4454170917	-24.3590230733
Sm	-26.8486835378	-11.3488402467	-24.30315769
Al	-24.0161426649	-10.0363318823	-23.3395942104
Al	-25.9441724476	-11.6046424592	-27.3564333372
Al	-24.7275962108	-9.49488855452	-26.1009874632
Al	28.1080225146	-8.83636480063	-23.6828057683
Al	28.0730271148	-11.2767901082	28.07575971
Al	-23.5930314068	-11.9463226009	-25.8130460694
Al	-27.5119432352	-9.21926985935	-26.6318945028
Al	-19.9468909415	-8.91176440611	-23.9064991785
Al	-18.0512090241	-6.97220470248	-26.9291169996
Al	-22.0352163829	-9.51510475348	-25.4240619491
Al	-19.1941436754	-9.57254862293	-26.459165336
Al	-18.8678150256	-10.8816102014	-22.2316358625
Al	-17.9885125545	-8.01647747002	-22.3649528077
Al	-13.3781654787	-6.5553096545	27.8490528052
Al	-16.0699467761	-10.2834582065	-21.4705585708
Al	-16.2869977244	-9.40952995954	-26.7027409832
Al	-11.7521626903	-12.1445772656	-27.5727089664
Al	-12.9475050373	-13.1624357365	-24.9784145643
Al	-16.2136350817	-7.18933956392	-24.8048311241
Al	-14.663814532	-11.4046796853	-23.6526901289
Al	-17.1933499086	-9.92568466099	-24.2608544604
Al	-15.4087553471	-12.3740948207	-26.1495940769
Sm	-11.141982604	-8.82065797329	-27.494098285
Al	-11.8315928923	-10.1796824573	26.3572775409
Al	-11.9712147243	-7.71689648835	-24.5660031882
Al	-8.36185654285	-10.3012227216	-26.9281080478
Al	-12.7535309522	-10.3703454812	-25.2764318644
Al	-9.61286411325	-8.95402008325	-24.728006435
Al	-5.47855006834	-9.48216615811	-27.8167358086
Al	-1.80009758053	-8.40948016174	-23.4837468871
Al	-3.88218846275	-9.33253051238	-25.2963708649
Al	-6.60583519333	-8.59501895538	-25.4325073903
Al	-2.60883830309	-9.01874204055	-28.0363115511
Al	-2.18208357663	-11.0711740137	-23.7520685838
Al	-7.84305438808	-10.8493151772	-24.1027161264
Al	-7.9808325276	-7.71473533531	-27.6603230923
Al	-4.49121960855	-6.97091987344	-26.9758178773
Al	0.584049904044	-9.88551596891	-23.3127007749
Al	-0.942047018411	-9.67819705692	-25.8332324003
Al	-1.9533051917	-7.07048342197	-25.8962354905
Al	-0.338041647997	-11.5770734912	-27.8864403353
Al	0.736382176753	-7.39652967797	-24.5912513314
Sm	5.52702756972	-10.6276016837	-22.3708150144
Al	6.33854939549	-7.72787084085	-23.35286403
Al	2.84330685446	-11.3141290443	-24.0632916947
Al	2.28135512733	-12.2422100319	-26.9643528692
Al	4.47337292652	-13.4650223461	-23.0204443097
Al	7.13171077034	-11.0886085889	-26.9625901018
Al	4.81366850136	-9.62886949342	-25.123991444
Al	7.66267142074	-9.89939721386	-24.5006882003
Sm	9.5563171191	-8.83660218224	-26.8314492398
Sm	11.4334139808	-7.46804791629	-21.3659722419
Al	9.51520271915	-11.7459238629	-25.1923935264
Al	8.51663757863	-13.7234038717	-26.7434490653
Al	8.89644577011	-11.6946873082	-22.4480506391
Al	11.7796198248	-12.2932048604	-23.6077489943
Al	11.9551384733	-10.7539016156	-25.9837961267
Al	9.93707497009	-11.6778142443	-28.0417674651
Al	10.6004006683	-9.54903078438	-23.8000450068
Al	14.4422324323	-10.6828185239	-26.941519125
Al	15.4004115978	-8.408883372	-28.2527345365
Al	14.2882021857	-10.7806189575	-24.1807478602
Al	17.045965021	-10.6796492646	-27.6763434038
Al	17.2143676167	-9.85367992951	-24.1673470128
Al	22.221085425	-11.030811377	-27.8842615349
Al	21.1286696721	-8.39460892464	-28.1590507727
Al	19.5907315049	-10.4790356767	27.5841508611
Al	19.3525915739	-9.98232003149	-26.2449571276
Al	18.1084618434	-8.2004030829	-27.7974723011
Al	21.2544968398	-11.6021783956	-25.3526969089
Al	18.6867922997	-12.1232178515	-24.3898292209
Al	18.6771967966	-7.50001450938	-24.9462787536
Al	26.2935312841	-9.13260636182	-25.5941787089
Al	26.6221666378	-8.67889769895	-28.1434970943
Al	26.9030190089	-11.7534308471	-26.0263736867
Al	24.1970136399	-8.49871184039	-23.9650350427
Al	25.1183251411	-10.9355985325	-28.1408293651
Al	23.9862520484	-11.1165811084	-25.6574231763
Al	-25.295499232	-3.61393291737	-22.6265014674
Al	-24.6957155178	-3.74571181683	-26.6999252149
Al	-28.1868370379	-6.6082505268	-25.6466775151
Al	-25.9257852456	-5.15955565134	-24.7120060997
Al	26.7511895789	-2.08017540471	-25.1779610169
Al	-27.3433456229	-3.05344432093	-26.1401331931
Al	-25.7361167585	-6.8090213002	-27.0708016613
Al	-26.0489667529	-7.95573617069	-24.3776388679
Al	-23.4398600089	-7.33561882691	-24.6402542822
Sm	-21.3032569864	-6.33155772333	-22.6099174204
Sm	-19.8859186466	-4.01829742034	-26.3667970665
Al	-20.6711413053	-7.12797363713	-25.9381491328
Al	-16.6891440532	-2.84382581487	-26.7095185072
Al	-19.8439949881	-3.8761236259	26.881379027
Al	-17.7715379616	-3.22939654363	-24.1556052849
Al	-17.5938910787	-4.70195207646	28.2194651413
Al	-22.4839826066	-3.15817391141	28.2644857483
Al	-18.68012752	-6.06220705698	-24.2936609253
Al	-14.0140484653	-7.98562922131	-26.3507819602
Al	-15.3379614252	-5.57479875032	-26.9072440377
Al	-16.4218328225	-5.53201400693	-22.635386055
Al	-14.0172291526	-2.92300264372	-26.8672073564
Al	-12.7644280932	-1.02775128503	-25.4709248389
Al	-13.7512726293	-6.0254534761	-23.4238391703
Al	-8.62045679134	-3.88114932611	-24.7206569347
Al	-9.6468565886	-6.36382203298	-25.8598084633
Al	-12.5147596178	-5.59721739044	-26.2921959609
Al	-11.0738049527	-4.98352177041	-23.9943172152
Al	-13.0441758023	-3.17294286781	-23.5606226622
Al	-4.97384193794	-4.64819342022	28.047728899
Al	-6.83234034881	-5.76997723187	-25.9372481855
Al	-4.56461543117	-4.19228796002	-25.797744751
Al	-4.46010324649	-2.02195047083	-27.7767631715
Al	-7.77057585967	-5.2113797128	27.8603211879
Al	-6.35902274647	-4.39086536125	-23.0039400191
Al	-6.89157428089	-3.20546689061	-26.8584297195
Sm	3.25259768579	-7.68065034387	-22.6732165432
Al	-1.8014141074	-4.04537916552	-26.1608137366
Al	-1.4665864798	-5.66576794805	-23.6316229363
Al	2.59701038366	-4.91215239687	-25.0766359115
Al	0.275613427153	-3.41658760034	-28.2348775957
Al	-1.97093221334	-6.00683566015	28.2399315724
Al	0.425346515618	-5.63981868699	-26.5617745161
Al	6.6521773172	-7.74424705579	-26.1190495304
Al	4.94097669423	-4.3845241375	-26.6541528457
Al	5.85688589231	-5.74660464249	-21.4684976187
Al	6.95263216587	-3.44378155909	-25.1704975519
Al	5.18942661315	-5.38379645625	-24.1241801168
Al	3.9595005583	-7.14630673827	-25.8430548098
Sm	11.1699705255	-5.79448790777	-27.9367566429
Sm	10.5042346025	-4.01840480698	-24.7265266862
Al	8.99685035631	-7.33521312919	-23.9667966275
Al	13.6658297346	-3.0874253718	-24.4134011592
Al	7.92507773554	-5.00496666392	-23.3160613051
Al	8.46451415996	-5.78212916264	-26.1899252989
Al	12.9160484374	-8.18533193847	-26.8244117616
Al	11.4213621933	-7.01896581304	-24.8855612312
Al	13.8419871551	-5.74355460184	-25.4061571767
Al	17.8703103267	-4.582901706	-24.9984235998
Al	14.2332433623	-5.78294044973	-28.0544305208
Al	16.2925822127	-6.71911956898	-23.6212533333
Al	16.7181831483	-4.41963349301	-22.1740125865
Al	15.3758675528	-8.49478667121	-25.5115104898
Al	12.7733156508	-3.38704624796	-26.9904760761
Al	16.5368974447	-6.24516797481	-26.5775461334
Al	15.5229087531	-3.54915318517	-26.4445021532
Sm	22.5846413359	-5.74537489175	-27.7846071095
Sm	19.5264932116	-2.60235148713	-23.2922887727
Al	19.4519302244	-6.04693673892	-27.1674173658
Al	20.7883671453	-5.53862104412	-24.762105877
Al	23.9053835459	-8.58201145163	27.0542691196
Al	20.1411509214	-3.5774606296	-26.5852595769
Al	23.4894698008	-5.98610197761	-24.8148916751
Al	25.7245574636	-6.30259606412	-26.6618136812
Al	24.6330359677	-3.75356291079	-26.1634413601
Al	26.2236961758	-6.66818557735	-24.0246029336
Al	27.7818261293	-4.38268157582	-24.1069513338
Al	23.860991409	-8.52856633474	-26.8332258142
Al	24.7917735675	-3.87676697315	-23.3957934884
Sm	-22.4743452232	-0.983933673881	-25.9798216318
Sm	-25.549556233	-1.17051183344	-28.1292151197
Al	-23.506253962	-1.52102634161	-22.6837962221
Al	27.8196433946	-1.03220373337	-27.702854026
Al	-26.9136062974	1.56314165791	-27.4512216411
Al	-27.5100746211	-2.09324805729	-23.3998650839
Al	-23.8744188835	1.55947263775	-27.8620241445
Al	-25.1771118208	-1.87529106021	-24.8663751369
Al	-18.4077142558	0.859982578373	-27.6146142889
Al	-20.2258966417	-1.45274139486	-28.1455540889
Al	-21.175134899	1.26075601926	-27.6214035007
Al	-18.6263102378	-1.12456220118	-25.8171462679
Al	-20.3158192102	3.18325720718	-23.5195882588
Al	-20.1585349773	0.777770414336	-24.6631643767
Sm	-16.9110917755	3.64454069987	-27.4205634651
Sm	-15.3093743392	0.09323235354	-27.4928237554
Al	-17.0429572726	1.37496831728	-25.2311757434
Al	-13.1518560869	2.33385466097	-22.3168865296
Al	-14.1234688123	1.33763468418	-24.8952588083
Al	-15.5553584794	-1.2191397801	-24.6578368147
Al	-11.1331186563	-3.17977146104	-26.0139241232
Al	-11.512340642	0.982084884024	-24.0663420359
Al	-9.98294801954	-0.451042413568	-26.2960186032
Al	-9.0243945224	0.711572655846	-23.6685940579
Al	-10.448353487	1.1880239903	27.4884063891
Al	-7.75701190394	-1.32964599684	-25.0503102657
Al	-9.45278170509	-2.93659513923	-28.1362418445
Al	-7.71688677829	1.26960214909	-26.2507348207
Al	-9.77305649174	2.87654949847	-26.938952789
Al	-5.41941506508	2.54851200332	-25.4024690798
Al	-5.36764307902	-0.208804106908	-26.0780689585
Al	-6.00395617399	-0.217315075799	26.2956002546
Al	-6.38826625998	0.822949664189	-23.5346419561
Al	-4.03494277418	4.22267255972	-27.0634548945
Al	-3.74515295299	0.861762280652	-23.8658495253
Sm	-0.531221430729	0.376459582817	-24.8077250404
Al	1.4859261894	2.10922613354	-26.8473517481
Al	1.80841789466	-1.0807640847	-23.1846732634
Al	-1.49908332986	-1.43547153989	-27.3628394753
Al	-3.06555181946	1.32651722222	-26.5291474689
Al	0.856551963199	-2.61053696834	-25.6377978888
Al	-3.05354431874	-1.63960812024	-25.2648945941
Al	1.23216967929	-0.683573244168	-27.95143176
Sm	5.45060633806	-1.01748801168	-26.8322247109
Al	4.4133989129	1.95188812423	-25.982199122
Al	6.37247022195	1.77654825668	-28.049662648
Al	8.37096236737	-0.0716162450283	-27.7257288185
Al	2.6215769478	-0.344004254203	-25.7578847346
Al	4.03803633404	-2.59146168395	-24.4109353909
Al	4.41418928412	0.234509287444	-23.7751573091
Al	2.87802636916	-2.85681784836	-27.4021622876
Sm	7.95966906833	-3.47389938368	-28.1670468101
Al	10.1131235997	0.957676057598	-25.5153332604
Al	9.51304665293	-1.08497385191	26.6177190454
Al	11.8007960975	-1.1553212604	-25.1453169573
Al	9.23291178706	2.69547498938	-27.3481543778
Al	11.3350268757	3.21187947343	-24.4606930646
Al	7.16644418289	1.15079571874	-25.2544119062
Al	10.4567718427	-1.9578836996	-27.2962830104
Al	8.68618280843	-1.44329043979	-25.3830348884
Al	11.7124771064	0.697454352164	-23.0541212367
Al	14.0732515801	-1.00907803114	-26.7893889142
Al	16.3589504035	0.361551700374	-25.4936377888
Al	15.0438272876	1.62096241863	-27.6102964587
Al	13.1072597409	1.33314050725	-25.5589347596
Al	14.2843177187	-0.467103818448	-23.7876282417
Al	16.4936416966	-1.17419944005	-27.9223422109
Al	22.3239798605	-3.20337078594	-24.8465743236
Al	22.5409066004	0.0741618714764	-27.7087248474
Al	18.9906832487	0.467471410683	-24.5626051758
Al	18.0901416586	-1.84437638034	-25.9514547006
Al	19.858912813	1.19604346269	-27.1407315777
Al	20.8077022123	-1.07206715581	-26.0184252149
Al	22.8769290608	2.63133826012	28.073381212
Al	19.1531245223	3.0707366856	26.4304055064
Al	27.0681819946	-3.8386898773	-27.5876650186
Al	27.065804347	1.60362246135	-26.7296905507
Al	-27.5474880459	-0.221073401234	-25.3862158496
Al	26.413943769	0.636919575832	-24.212379786
Al	-24.938599046	1.01428878506	-25.3984317707
Al	24.4731077075	1.255599455	-26.2482598267
Al	-26.6477829452	3.85076015415	27.6794577916
Al	-27.1200378841	8.30433993921	-24.5495807795
Al	-27.3023094744	6.92467294225	-27.862896377
Al	-24.6507787202	3.69424814548	-23.9455482803
Al	-26.6506949369	5.62086065386	-24.8859172707
Al	28.2447080066	4.15098615143	-26.817122308
Al	-26.2124759653	4.86637076549	-22.0791758361
Al	-23.3342923328	5.43089922276	-25.8421501641
Al	-25.0128786576	7.63327483801	-26.2097098696
Al	-19.7484060084	3.11057485089	-26.2353646483
Al	-20.5417045461	5.60478839313	-25.2431728222
Al	-22.2627276141	7.93710349929	-25.3543317791
Al	-18.0959212681	4.49521672319	-24.5534101395
Al	-19.3145790194	7.83372251123	-26.1867129914
Al	-22.4755309924	2.60387590209	-25.5446862929
Al	-21.5089227856	6.54082568075	-27.7463346921
Al	-22.3447884861	4.87669465679	-23.3172272664
Al	-16.9708865187	6.41894719737	-26.099544977
Sm	-15.0315383529	4.19589566647	-24.2520848383
Al	-13.0545429115	6.62573069626	27.2514646438
Al	-14.7940803813	7.29141598562	-24.8186870947
Al	-13.9998949797	2.96766888973	-27.1156426196
Al	-16.0797814682	8.8373507994	-27.085270677
Al	-14.3033925256	5.58689380475	-27.1418842967
Al	-11.965257368	3.47134714332	-25.0550415917
Al	-11.8624609891	3.78164400122	27.9684560426
Al	-12.3439645046	6.10486452853	-25.2437509582
Al	-10.1418871575	3.1949731239	-22.7587598638
Al	-10.358226939	7.12357435132	-23.4982247971
Al	-7.60914973501	7.14787106651	-26.028206929
Al	-9.68151041936	5.26978743332	-25.6189664711
Al	-10.8027216875	7.0667110922	-27.4110916981
Sm	-2.97870513585	3.91282757686	-23.9710000545
Al	-8.12934188495	5.63390427322	-23.1578016833
Al	-2.68954339324	7.05577066453	-23.4193384788
Al	-4.26536742546	5.38444208669	26.9707931155
Al	-8.06677969403	3.28993620966	-24.5733354809
Al	-5.84423305484	5.23226814219	-25.2614789452
Al	-2.64379198686	6.40254740181	-26.1535773154
Al	-7.08518885673	4.00760060372	-27.3709218404
Al	-7.19386746626	6.49927794127	27.5954531634
Al	-0.325815410405	5.55385478336	-24.8168967746
Al	2.22955790081	1.79996215189	-24.0740256261
Al	-2.79225356032	2.79131998651	27.65718504
Al	-1.1707515934	3.35269335638	-26.5280727602
Al	0.879504807305	4.89429083863	-27.3576697732
Al	-1.57389600272	5.47657830605	27.8642253378
Al	3.53891005911	4.03104587834	-27.448513507
Al	4.90953018385	3.01607866967	-23.5002403536
Al	2.80303951098	6.64027007783	-26.813759686
Al	7.102403516	4.90920800509	-23.7673839575
Al	7.33576493308	6.6147880293	-26.0196530604
Al	5.57056594848	5.98334404626	-28.0482025253
Al	6.7253131159	3.78671462127	-26.2882360251
Al	2.35055060213	4.46367288188	-24.8115359295
Al	4.8424366042	5.42446823891	-25.2847103811
Al	10.0243223774	5.20517130522	-22.9039398655
Al	11.8488165404	7.76772163741	-23.3104942908
Al	9.24775948201	4.7210828119	-25.5443609096
Al	12.5079602095	3.59482781803	-26.9966064668
Al	11.6138649503	5.91191343363	-25.4128927211
Al	9.85937506294	7.66189717048	-26.5494400447
Al	13.7606738696	2.39728441988	-23.1181457525
Al	18.2344587628	3.3239533952	-24.2564868214
Al	16.2705454695	7.53001209725	-24.5481057734
Al	15.5064529951	3.00751472846	-25.1918388696
Al	15.6012939875	7.02486099808	-27.4095844486
Al	14.2866189376	5.56408114575	-25.505250971
Al	17.6941622949	5.50069426472	-25.7959208493
Al	17.5478714409	2.73774171783	-27.076362635
Al	23.9107887225	5.65424408951	-25.0904735543
Al	22.5034919297	7.88269723282	-26.0350332885
Al	20.0907773177	6.64708312792	-27.1875269564
Al	22.7427300835	3.20744180637	-25.7125511912
Al	20.4710434248	5.25887938969	-24.5483197039
Al	20.0634165509	3.86568325678	-26.9257769678
Al	22.1836814674	7.17976907643	-23.2165578753
Sm	26.8743435946	6.60443453933	-25.5851633031
Al	25.2191257641	3.9954051275	-27.3708570454
Al	24.5581537547	6.86841853815	-27.7713820504
Al	24.6359644846	8.18980219934	-23.8216043767
Al	26.6722203703	8.2761173795	27.8846560683
Al	23.887505281	1.87797263322	-23.5774490574
Al	25.9534275797	3.55937137241	-24.7754520308
Al	-27.0182206657	11.0158307018	-25.1250287818
Al	-25.9463893033	9.62440489151	-27.9284544058
Al	-25.5108641387	12.2141413809	-27.2529669444
Al	-25.7654558463	11.8961872987	-22.8444506366
Al	-24.5856334992	9.6078585187	-24.2520798173
Sm	-21.3018467148	12.8296475014	-26.7836029454
Al	-22.390505097	8.58064583698	-22.703165213
Al	-21.0212764188	9.58175791979	-27.3399658012
Al	-21.5306949767	10.5527242782	-24.6079051412
Al	-24.0172767303	12.2629599405	-24.898317757
Al	-19.7499340527	8.28069700952	-23.6003090981
Al	-18.7431817613	10.565568307	-26.2663094767
Al	-23.5451232812	10.341301877	-26.6831349052
Al	-20.4126511995	10.6035909097	-22.0378406744
Al	-14.3705290039	10.266070386	-25.2778766061
Al	-12.55774141	12.3854651007	-27.1366384268
Al	-15.2225312404	12.6150572093	-26.4012496311
Al	-17.2194998369	9.02104472833	-24.6180991195
Al	-16.8860653593	11.4385771817	28.1757453873
Al	-16.3241400622	11.5073114917	-23.7665486494
Al	-18.4202084378	8.92315351621	27.9983159125
Al	-14.1930146502	10.4831592703	-28.1906125094
Al	-11.3922781062	9.77443533785	-27.9645864899
Al	-13.3171000238	8.15928154196	-26.9830266524
Al	-10.3704677711	12.7719639552	-22.0600056582
Al	-9.30926887742	11.2864959213	-27.118894998
Al	-11.5416803838	10.9855965768	-25.1400831362
Al	-9.73297227614	8.9261614017	-25.4893533329
Al	-12.4890483145	8.65402956905	-24.1396716232
Al	-11.7916573521	13.6702210493	-24.3986520868
Al	-4.3314915636	10.5639275841	-24.2780896722
Al	-5.02440929957	7.0130255385	-27.4549275094
Al	-4.44083880012	10.0290456474	-27.0070029945
Al	-4.72744445867	12.8694114093	-26.0442572246
Al	-4.96840426841	7.99862037567	-24.9492539125
Al	-2.25041850364	9.05113179503	-25.5025422202
Al	-8.98792919923	11.3723547063	-24.2922278323
Al	-7.39545463193	13.0978893756	-26.3261209217
Al	-6.97100587429	9.95742815106	-25.7830788092
Sm	-1.76732850518	12.2850419236	-25.5151738316
Sm	0.67071034602	10.231561531	28.2014024051
Sm	-2.43737365327	8.44798238231	27.7578381871
Al	1.27787506087	12.5688162862	-26.2541763859
Al	2.54681592991	9.26870503933	-25.7998613945
Al	0.218939392209	10.1247139924	-25.1038596989
Al	-0.00359585905517	7.6344822769	-26.626181708
Al	3.60702382461	11.3602520136	-27.1772426171
Al	5.06582169102	8.27399912789	-26.2378600826
Al	6.01871297404	10.7092042319	-28.1197517034
Al	3.462280831	11.7538251346	-24.5615183092
Al	5.92650640221	12.6120281198	-25.9967372763
Al	6.07439546856	7.5655355887	-23.6939277194
Al	6.22469523852	12.0004735462	-23.2188391755
Al	3.43521527397	8.70949902056	28.1826924372
Al	6.9448802376	9.93078967384	-25.3028906385
Al	11.022218558	12.4803739616	-23.3713686267
Al	14.1933276376	11.7034929973	-26.691527102
Al	9.85396517945	9.87235513328	-25.0616606068
Al	13.3247167334	8.12380008469	-25.7987575723
Al	11.5342822699	9.69332024268	-27.4468173212
Al	12.4250804431	10.3738740103	-24.5976074875
Al	8.73243774259	10.6546823979	-27.4316003925
Al	17.8222111884	11.0894168196	-27.1196604421
Al	15.6829765463	9.539720733	-26.2511118889
Al	14.6413185541	9.41591507571	-23.4203465482
Al	15.7829554517	11.093913844	27.6613749759
Al	17.9666117252	8.26258545444	-27.009127966
Al	16.4136717925	11.4317743012	-24.5738751647
Al	18.9303763645	10.5595215959	-24.7208883884
Al	17.5170558168	9.34322657214	-22.6384925185