12136
56.568542495 56.568542495 56.568542495 LAMMPS data file from restart file: timestep = 762, procs = 1
Si	-26.8940512715	-24.3618726904	-25.0533737876
Pd	-24.6855336546	-23.5828418399	-26.0689356373
Pd	-25.9780474538	-25.9419952235	-26.7146734503
Pd	-27.3254632753	-23.4419414015	-27.2998616961
Pd	-26.4218266931	-26.7145904146	-24.2588080482
Pd	-23.2841288935	-25.9752717856	-26.7054634248
Pd	-22.266384118	-24.3121204308	-24.6500908326
Pd	-21.0638467673	-26.7770975783	-24.9705888554
Pd	-23.0729330932	28.1811077497	27.3709235761
Pd	-23.6183197152	-26.6303694334	-23.8909175225
Si	-15.1582051996	28.0231887569	-28.1149306583
Si	-16.5749991384	-25.0810131223	-27.4315081953
Si	-18.6676382918	-27.508167491	-25.3720743988
Si	-14.7740112873	-23.4635617067	-27.4855098392
Si	-21.0383532575	-25.0851176873	-26.7081946325
Pd	-18.8630410218	-25.0633859566	-25.4355626299
Pd	-16.4522164413	-26.308671462	-25.174029953
Si	-14.0382714606	-25.9915815865	-24.8078079575
Pd	-11.864935227	-26.6749369009	-25.8848602153
Pd	-14.3520334336	-28.238589364	-25.7853119742
Si	-7.8611246142	-26.5923618507	-24.2457532384
Si	-11.7240912941	-26.1678818699	-28.2294170026
Pd	-9.98699618932	-22.6613297495	-24.0971834987
Pd	-7.81669727521	-26.1401204125	27.6169097933
Pd	-9.93667909587	-24.7379929368	-27.4553026463
Pd	-10.2122147008	-26.3576110008	-23.5191353764
Si	-1.48440715716	-24.8223806713	-26.2878550453
Si	-4.87587204032	26.3547232207	-24.5867653504
Si	-5.80823998673	-24.8633136875	28.1201414441
Pd	-5.77595102661	-23.8654967222	-23.9427079255
Pd	-5.85373093925	-26.0421454116	-25.8783850476
Pd	-3.35990062562	-25.0902625715	-27.9523443644
Pd	-2.84085867622	28.2022773341	-27.1138121329
Pd	0.839096700678	-25.5810019401	-26.0937109943
Pd	-1.41564456487	-26.9838406175	-25.1808505804
Pd	1.37173422934	-25.3815559126	27.6715134498
Pd	2.5693406032	-22.7503399055	-26.8064550695
Pd	2.12699821695	-27.7002830475	-27.2592363508
Pd	5.063353089	-27.3198878488	-22.8170260365
Pd	3.57319563916	-26.7589810851	27.2182730145
Pd	6.19313151659	-25.8672836304	-25.0431300553
Pd	3.387853752	-25.1869464273	-27.0142718957
Pd	3.2932368674	-26.6112316447	-24.8162086182
Pd	11.0902219523	-27.7739275559	-25.6830586868
Pd	9.72557882912	-28.1046846845	-28.236138424
Pd	7.64185710062	-27.3288794934	-26.8362667237
Pd	10.2542812334	-25.4846673986	-27.2672800652
Pd	9.18016368508	-26.014289557	-24.9067796696
Pd	6.96980311372	28.0183801668	-24.5542230234
Si	17.3843318693	28.0560633353	-24.463905362
Pd	13.112558377	-25.9783144811	-25.3225918785
Pd	12.5920966598	-23.8233453044	-27.3064912549
Pd	10.8880642495	-23.9267565072	-24.9351269487
Pd	11.2620251751	-26.990479176	-22.9694829434
Pd	12.5223564495	-26.6136557703	-28.0488679646
Pd	15.3278084793	-26.9497626092	-27.4110226669
Pd	15.403735612	-24.5918052541	-26.0846346758
Si	16.9507589395	-25.2610832907	-27.9582199195
Si	17.2740507274	-25.0455430624	-23.4974328222
Pd	19.5093801497	-25.0775819693	-24.3893351903
Pd	17.5691528131	-26.4285694278	-25.7511946328
Pd	20.4470005486	-27.1334423869	-26.6436278602
Si	23.8560840807	-25.3783911572	-26.269115973
Pd	22.3784046501	28.2769396683	-23.2565840534
Pd	22.0873350522	-25.946951957	-24.6476763405
Pd	21.7271750753	-24.565039257	-26.987368317
Pd	25.609096116	-27.1834818549	-26.7232141305
Pd	25.4371209933	-25.0565498838	-24.5385335734
Pd	-28.1158956916	-27.9255557428	-27.4484258988
Pd	25.0351295993	-27.7331739573	-23.8589516951
Pd	27.4200465681	-23.284433151	-25.1609239548
Pd	26.8674446077	-26.4254478765	27.420238991
Pd	27.8042281482	-25.5927583574	-26.4058124821
Si	-27.2720011653	-20.9488703154	-27.2691874682
Pd	26.9855303642	-21.4157125042	-27.1375773619
Pd	-25.354817146	-22.1112791809	28.2635032305
Pd	-24.3368243644	-20.509711685	-24.9755519565
Si	-22.7601113455	-22.1403996798	-25.698993114
Pd	-19.8008863568	-23.8907446185	-23.0681369615
Pd	-20.3486716454	-22.801584171	-25.9288833197
Pd	-20.6811903283	-20.3710942034	-27.4310133948
Pd	-22.389953185	-23.3322992214	-27.8085201252
Si	-14.3653818382	-21.1983110252	-23.6113044683
Si	-16.436792428	-19.5109072159	-26.6930708194
Pd	-18.1584186262	-21.1441071372	-26.3827568408
Pd	-18.4872936405	-18.7042263449	-27.7327247699
Pd	-14.8864510778	-21.3610695542	-26.4011356092
Pd	-13.1993210992	-23.8312386267	-25.67202793
Pd	-16.6333804395	-23.452350509	-25.7089759437
Si	-10.8487489104	-24.6061985823	-25.0858653938
Si	-11.1211181914	-22.6492725805	-26.4351420271
Pd	-12.2859404796	-20.7973596201	-27.6900003928
Si	-7.75704799221	-22.0900531068	-25.0583932455
Pd	-8.30217171131	-24.4924383888	-25.3282139679
Pd	-6.17103007118	-23.3286985346	-26.6085628489
Pd	-7.35440861847	-20.9616898184	-27.1298639361
Pd	-9.80723606885	-20.6174184958	-25.8405956328
Pd	-7.79083174157	-23.4153660421	27.751746201
Pd	-5.55834070752	-21.1803761993	-24.5882873408
Pd	-3.41008968732	-23.535441988	-25.6001510248
Pd	-4.35746072727	-21.376759481	-26.9697067799
Pd	-1.8149375761	-21.0570803966	-25.9829157816
Pd	1.55246912945	-20.7371866885	-25.2502142635
Pd	0.0450998143352	-22.9423766397	-25.9159607394
Pd	0.41225264303	-21.0546412189	-27.86696184
Pd	0.130798154634	-18.7762384158	-26.5352349284
Pd	-2.2679958524	-21.5271095209	27.9456248164
Pd	2.46784942061	-19.1482887849	-27.8974624047
Pd	-0.697004049816	-21.5077553191	-23.6498747519
Si	3.35895669797	-22.0041705113	-24.1999606281
Pd	3.54507391453	-21.2505736222	27.7475135028
Pd	5.04294926326	-18.8317297611	27.2844166857
Pd	4.28533794345	-20.7791945812	-26.1168075956
Pd	2.06643884696	-24.0148910224	-24.3380125733
Pd	5.42099014897	-23.008011805	-27.5403112776
Pd	5.76380093706	-21.3218110599	-23.7494893628
Pd	6.18210300682	-18.8767513004	-26.5991163206
Si	5.93186814371	-20.7503093328	-28.1297363685
Pd	7.13910441699	-21.6387416744	-26.0823643661
Pd	7.80304187961	-24.2934129001	-26.6566808857
Pd	7.8898818343	-22.0678849217	27.9636682664
Pd	10.0293594714	-22.7727550288	-27.1818965102
Si	13.3540280228	-23.5946741281	-25.0573383165
Pd	12.1711745123	-21.4731398955	-25.4889190377
Pd	10.7392961488	-20.3116815339	-27.7873054968
Si	17.1841301862	-21.0796192867	-26.5798151839
Pd	17.0478484486	-20.4963043421	27.5500280545
Pd	20.4017700856	-22.6827518498	-25.462776694
Pd	18.9907600191	-19.4203831093	-26.4972294213
Pd	16.5668441038	-22.9159917662	-28.0496241571
Pd	17.511153062	-23.0045199708	-24.9938690913
Pd	19.1328015612	-21.9597279687	-27.6511198164
Pd	13.9980985925	-21.8326115763	27.9626587418
Si	20.4912009951	-22.4864532466	27.0446604774
Si	21.1527859308	-20.5373984472	-26.379403434
Pd	21.6777097867	-20.9417416768	-23.941249174
Pd	22.2855076746	-22.089950871	-27.918433894
Pd	23.5618848082	-20.8660244682	-25.7807884265
Pd	23.0137291568	-23.4575899286	-24.7833972562
Pd	27.6888837075	-21.0813148132	-23.5109803936
Pd	25.2874196641	-22.2012348903	-24.0258950207
Pd	26.8834269952	-23.8312590842	28.2188250088
Pd	25.9334690818	-19.7955813297	-25.3310170956
Pd	27.9358713713	-18.9713725366	-28.1750720929
Pd	24.8052949861	-23.1552923746	-26.7863429203
Si	-26.4210676572	-17.6510841489	27.8975611134
Pd	-27.4709860335	-15.1266809538	28.2826207173
Pd	27.8666760472	-16.8045043507	26.4518059903
Pd	-27.3536343809	-17.0919062052	-26.4799428117
Pd	-25.5775059649	-19.2942706142	-26.9995947073
Pd	-23.2384678359	-20.6969114128	-27.686145808
Pd	-22.9357009036	-15.912641707	-27.8620911637
Pd	-20.8710161818	-15.923611229	-26.312786519
Pd	-22.9685513806	-18.2990576994	-26.3444043846
Si	-16.4449629617	-15.3574633321	27.7433804931
Pd	-17.7177675224	-18.8815182819	-24.6324421958
Pd	-18.3988630499	-16.0922311285	-25.1111684744
Pd	-20.1664727763	-18.3244193527	-25.5802363239
Pd	-16.3045848926	-17.1105535771	-26.7830215925
Pd	-18.5420527401	-15.9927325176	-27.8224520106
Pd	-12.1424768989	-18.6936756815	-25.8764464827
Pd	-12.4599834737	-21.1984244999	-24.9936323686
Pd	-14.8023746921	-19.1526286559	-24.9149987514
Pd	-12.3654491804	-14.7856282165	-25.8181538765
Pd	-14.4259666286	-15.2772173956	-27.4427828507
Pd	-14.0310745167	-16.67758375	-25.1165614647
Si	-8.74813745411	-16.7549718084	-28.0727238982
Si	-9.93557727158	-18.4653717398	-24.5868159278
Pd	-10.5722297139	-14.8416078164	-28.0886033699
Pd	-10.2246293685	-18.8779219371	-27.9358113822
Pd	-7.65681692763	-18.7487187102	27.5955946984
Pd	-10.3331535874	-16.7429763503	-26.2617962708
Pd	-8.08835207031	-18.3911830932	-26.2818671825
Si	-3.69328820265	-19.6573435233	-25.3499766078
Si	-6.25446676362	-17.0186252494	-25.5347245764
Pd	-5.44772352014	-18.9244388966	-26.9144960382
Pd	-3.24714851705	-14.2207501788	-22.2209660606
Pd	-3.79562147951	-17.1312173933	-25.5073509348
Pd	-3.60785584165	-15.5665012238	-27.9078227286
Pd	-2.60434086283	-18.8986829802	-27.454259416
Pd	-1.39263553655	-16.5120371122	-26.473666412
Pd	1.6563286956	-16.6696415755	-27.6171046412
Pd	0.62203805073	-16.7781758592	-24.6408777318
Pd	-1.9152554395	-16.3581830237	-23.4465713561
Pd	-1.62806939893	-18.753384732	-24.5250945506
Pd	5.32255205702	-16.6580452632	-25.2474762396
Pd	2.99320042922	-18.3196669015	-25.3812589703
Pd	6.37500137531	-16.6585289886	-28.1309116707
Pd	3.00152853443	-15.5510318564	-25.4549937256
Pd	7.80550906783	-16.1346156128	-25.7400465442
Pd	8.28606146375	-14.8323072236	26.8876435439
Pd	11.4286627318	-17.7277167967	-27.548279226
Pd	9.64627791855	-18.7566950195	-23.7332410973
Pd	8.98652766042	-16.9131847675	-28.2199289067
Pd	8.90520691245	-18.8041079737	-26.377033175
Si	14.7405852943	-19.5029800489	27.5590615774
Si	14.3462697003	-17.1452771269	-27.178152516
Pd	12.2127979747	-15.1819177902	-26.5501646291
Pd	14.9173786238	-21.849412256	-25.9573062136
Pd	13.3922233563	-19.5385297342	-26.9987451265
Pd	12.4683995925	-19.9466477543	26.5562143514
Pd	10.3536866236	-16.6905834961	-25.2957928425
Pd	16.7464655273	-16.2911153511	-27.2863344869
Pd	18.4577675987	-18.196245925	27.7327697545
Pd	17.3516103103	-19.6845631063	-24.4782112086
Pd	18.505259235	-17.2227332914	-24.4462281721
Pd	16.0871567644	-18.9557265899	-26.9918461355
Pd	15.9571161238	-17.4487597189	26.988301394
Pd	22.6598609871	-18.935245915	-27.3589201113
Pd	20.3404647316	-15.251899198	-24.8665307351
Pd	21.00698279	-18.5246212192	-24.9248100627
Pd	19.4014946451	-16.7483583366	-26.8653112601
Pd	22.100568631	-16.5608772956	-26.5098094445
Si	27.1200404609	-16.6565393156	-27.6291108251
Pd	26.6605039759	-17.2729354197	-25.2930902298
Pd	27.4816200934	-15.1359371793	-23.7111391913
Pd	25.2025228003	-18.0895384079	-27.6523491452
Pd	23.8274315912	-17.9398211201	-24.8690101751
Pd	24.6677429529	-15.7874433862	-26.3154494731
Si	-26.5616197294	-10.4789882012	-25.1339847139
Si	-27.0232328981	-13.4003627109	-26.491503819
Pd	-24.9109031786	-14.3094705853	-26.9555143035
Pd	-25.106879773	-12.4962607818	-24.651545811
Pd	-26.5616029969	-15.1262366023	-24.821031791
Si	-20.248650794	-14.2169646459	-24.8060178347
Si	-21.0838903854	-12.0305867947	-22.0452117979
Pd	-23.6016686452	-15.7498673385	-25.1333171071
Pd	-22.6862385308	-10.7721836251	-27.7198875188
Pd	-22.4605802078	-13.4858200507	-23.8044527012
Pd	-22.0741293129	-13.4928899161	-26.5165857487
Pd	-20.6967235245	-12.5003694002	27.8093699024
Pd	-20.4671160047	-11.7975007183	-24.5346672523
Pd	-15.0355290689	-9.90912699326	-25.2466957653
Pd	-17.8993937174	-11.3486668986	28.0029062527
Pd	-15.2993090308	-11.2019600118	-27.6368831397
Pd	-19.2405708652	-13.3934175806	-26.7979576654
Pd	-16.0055710538	-14.8701082262	-25.0748149955
Pd	-18.057779125	-13.4159236263	-24.3504563832
Pd	-18.2913223392	-13.8383547788	27.1012409645
Si	-10.5084726985	-10.4908534383	-27.9389666774
Pd	-16.6208125659	-13.5421027989	-27.309096929
Pd	-10.9304395084	-12.2954334243	-26.1275881422
Pd	-14.5012685111	-12.8598758338	-25.6738562854
Si	-8.40617082709	-12.6071604667	-25.6331913148
Pd	-5.46055427913	-12.4296108524	-25.2583013437
Pd	-6.90358213422	-11.2873744623	-27.2580272402
Si	-3.93995503469	-13.279534267	-27.0830911298
Pd	-3.26505551615	-14.3548942916	-24.9190086087
Pd	-4.29128192365	-10.9056148244	-27.4068194489
Pd	-8.05709029119	-14.857107139	-26.7320777238
Pd	-5.51716393336	-14.8879477215	-26.1397239513
Pd	-6.02836820723	-13.5983100435	28.1524562944
Si	0.0783109131981	-15.0377316591	27.905534178
Si	-0.921262475034	-14.768859081	-24.958187271
Pd	1.05353719936	-11.9500032058	-27.3169575162
Pd	-2.42605135643	-11.836630887	-25.6157130167
Pd	-1.57906236189	-13.859311955	-27.3378671754
Pd	-1.61595169931	-11.313515608	-28.2327577313
Pd	0.889090457192	-14.4272982715	-26.4569288604
Si	3.07915876088	-13.2901946442	-26.624135783
Pd	2.92191762009	-10.8628435301	27.2605187403
Pd	1.64261087367	-10.4545549964	-24.1461704519
Pd	4.89718930569	-12.1860253984	-27.8446010138
Pd	5.17245986748	-13.7793792404	-25.4123852393
Pd	10.4518941527	-9.9707488603	-26.8931713641
Pd	8.60692327347	-11.9537443829	-26.9949910199
Pd	9.59813702188	-14.5417718852	-27.0157481702
Pd	6.31140206198	-11.3066330943	-25.4013229583
Pd	9.81781582292	-11.2195686826	-24.5302749805
Pd	8.0421918961	-13.4205140326	-24.7648051734
Pd	6.97039397198	-14.0749090573	-27.4083359875
Si	12.7417170729	-15.381332732	-24.0416834012
Si	15.6660961112	-12.7728533107	-24.1073812202
Pd	14.7092757272	-10.923517607	26.090271653
Pd	13.6843674892	-12.5000876271	-28.1335865329
Pd	15.1791489522	-11.4589721968	-26.0588198237
Pd	14.7651557256	-15.126009366	-25.8835002986
Si	15.8784935256	-11.3105721463	28.2694852997
Pd	18.2982284371	-10.8155183833	-27.6790107334
Pd	16.4536593625	-13.5349462952	-27.3298463899
Pd	17.3079123888	-14.6285394102	-24.7933215685
Pd	17.671964604	-11.7455024635	-25.081500762
Pd	19.2528419913	-13.4872919391	-26.4805273338
Si	19.2386388373	-13.3054377735	-23.9328675317
Pd	20.9720602659	-11.3139007301	-26.3494016143
Pd	23.8050555443	-11.8091939264	-25.2733170632
Pd	22.3841283198	-13.9490662077	-26.3319530678
Pd	20.2648534845	-12.7107444822	27.7131524575
Pd	22.94089246	-12.044583655	-27.9727723746
Pd	25.5028563814	-10.723811125	-27.5815269644
Pd	25.0913544799	-13.3395296819	-27.1464502006
Pd	-28.073772505	-12.3873302519	-24.4097886988
Pd	27.3682137664	-14.5809359667	-26.3024075254
Pd	25.2607226687	-13.8675793831	-24.4425037803
Pd	-23.1688615918	-10.7971527068	-23.0613464265
Pd	-26.6135120279	-8.16949783385	-24.2977105139
Pd	27.7861268123	-9.92006591549	-26.0176492797
Pd	-27.1245525885	-7.3907576115	27.4979779052
Pd	-26.3684079387	-8.86020689017	-26.9507250035
Si	-22.273902259	-7.1910966646	-25.9977212414
Si	-24.4279494852	-8.37866676645	-23.1155211728
Si	-22.8877361891	-11.5335571214	-25.3955559394
Pd	-21.5639081472	-9.40763785057	-25.2077804499
Pd	-19.8170961297	-10.5396821596	-27.0548186662
Pd	-21.2667798816	-8.43135724481	-27.9269285504
Pd	-24.2788743865	-9.51687541275	-25.3239166252
Si	-19.7056168874	-7.75143641111	-23.5509513861
Si	-16.8346897769	-10.3463646071	-23.5917125354
Pd	-17.7459317899	-6.37944147384	-27.8425664194
Pd	-17.2723233083	-11.4272410087	-25.7912281846
Pd	-17.2523966011	-8.99972399379	-27.0132122936
Pd	-15.7411247125	-8.10857784146	-23.3554813363
Pd	-18.8087434778	-9.57105831843	-24.7245516992
Si	-9.00050368261	-6.17027266002	-26.1674816468
Pd	-14.4698860808	-8.31668414822	-27.6102595256
Pd	-11.0556143054	-7.38907155169	-25.684470928
Pd	-11.7914748351	-8.34069549075	-28.1322976017
Pd	-13.5784817282	-7.4835403868	-25.0154669061
Pd	-12.7237894126	-10.3993533969	-26.7602628385
Pd	-7.33388646963	-11.1041448782	-23.879352145
Pd	-9.09006353279	-8.22905626971	-27.4310186111
Pd	-5.75654199267	-5.88827146216	27.4439968075
Pd	-11.0740200612	-9.71126435702	-24.4646372184
Pd	-9.05911433313	-10.3344788146	-25.9252352693
Pd	-8.56403456101	-7.85130163216	-24.4116201587
Si	-3.73803217425	-8.23705546337	-23.1712411623
Pd	-4.41530609431	-8.17133113602	-26.8964172243
Pd	-5.16066788232	-6.9051534829	-24.6372426903
Pd	-2.0422880536	-9.27318194025	-26.6145401162
Pd	-6.64511793154	-9.14547503661	-25.7457460066
Pd	-4.36990574649	-10.0167452693	-24.7198978813
Si	-2.40305496289	-7.18150345335	-27.7078182945
Si	-0.29284188621	-10.4924005925	-25.6922659986
Pd	0.163391155719	-8.22117754028	-24.8104961757
Pd	-2.43681381414	-7.09669267639	-25.1527108961
Pd	1.48719987771	-9.41636075831	-26.9615677938
Pd	-0.121054687874	-7.17649454575	-27.4033724385
Pd	3.54123021256	-11.0231738459	-25.9140120645
Pd	4.20264460171	-8.99750858958	-27.6572277637
Pd	2.46245612294	-6.73437171808	-27.1668422683
Si	8.18656438831	-9.84490931535	-25.8070942374
Pd	8.41983509681	-8.10584207267	-27.5374831918
Pd	9.5865543032	-8.21030613791	-24.7819410515
Pd	6.35364444772	-7.68089639384	27.2352619222
Pd	6.20037120942	-8.37595714716	-25.7656744629
Si	13.4305070789	-8.453444698	-24.3252632646
Pd	12.9801476881	-4.95996453775	-26.8185654908
Pd	14.5959978488	-6.29433547382	-25.1344563872
Pd	14.072460038	-9.67781942049	-27.9804222509
Pd	11.9615300211	-6.51239968356	-24.3180247991
Pd	12.7042340481	-10.4775104368	-25.472261892
Pd	14.4167365827	-6.91691574804	-27.817006229
Pd	12.3955456773	-8.01935560978	-26.5065945504
Si	16.858754566	-6.94236167174	-24.403608586
Si	16.5216607031	-9.02432501472	-27.8336892157
Pd	15.4549781207	-8.72460689858	-25.6749962051
Pd	20.1451955926	-8.15895660358	-24.0711913485
Pd	17.5078802326	-9.25066032273	-23.8082673055
Pd	18.08531801	-7.94620938507	-26.2774936811
Si	19.2849716236	-9.88457764165	-25.5425784933
Pd	21.0033034692	-10.1974888608	27.729350399
Pd	23.584310694	-10.3170447059	26.7353795319
Pd	23.1046180997	-9.56240173699	-26.8532295463
Pd	17.1673622906	-5.35337873913	-26.2217977736
Pd	22.7644189575	-7.42985544576	-25.1061148141
Pd	20.7594846309	-8.1507247779	-26.8953535016
Si	26.2697747582	-11.883077867	-25.5571921477
Si	26.841414776	-7.79940667376	-24.8355017907
Pd	-28.2108676972	-6.95199553322	-26.3970865674
Pd	27.7616687709	-9.33102219658	-23.2883371515
Pd	-26.6075193038	-5.20224250263	-24.534489232
Pd	-24.9277889817	-3.6815377827	-26.2122071905
Pd	-27.8235840623	-4.18785506952	-26.6626182844
Pd	-25.8617406087	-6.04547769966	-27.2509743176
Pd	-24.3725546683	-6.6317616896	-24.9287035925
Si	-18.735349294	-5.05665104694	-26.0365966734
Pd	-22.2236002431	-4.72918755035	-25.2445647751
Pd	-19.9553693091	-2.91575688421	-25.6683812023
Pd	-19.9516896455	-5.30141495406	-23.9035945778
Si	-15.8702260068	-7.53912571111	-25.7597940386
Pd	-15.7389876825	-2.83871930432	-27.4644245131
Pd	-17.1544868354	-3.50609793957	-25.1048762049
Pd	-17.7341277406	-6.70719654176	-24.5003637314
Pd	-18.2528371711	-3.41226938001	-27.8318150069
Pd	-17.7899184502	-4.60046644091	-22.4290391315
Pd	-19.8261914582	-7.25703253275	-26.0640827785
Si	-15.4735867874	-4.45845855122	-21.7636961706
Si	-11.0333695748	-3.03511900675	-26.8512269175
Si	-12.860055635	-6.4175036541	-27.0594997011
Pd	-10.7746962409	-5.35811331691	-27.6062186481
Pd	-12.5104686163	-4.86519381845	-25.0850247272
Pd	-15.4641748161	-5.44382383535	-24.1228536052
Pd	-6.80678859524	-6.81185841871	-26.9483382544
Pd	-7.57760655607	-2.12171325937	-28.0695677193
Pd	-8.81301665743	-3.74211900962	-26.4301807895
Pd	-4.92649995463	-4.1589348598	-24.3450431311
Si	-1.56421048721	-4.00542785809	-22.8562555729
Si	-3.85105959634	-3.18054606949	-26.2900717588
Pd	-3.9198716231	-5.48257260996	-27.031605398
Pd	-5.52965063787	-1.50210566669	-25.647844399
Pd	-6.12643110206	-4.05907517144	-26.8607260418
Pd	-0.460546278275	-2.31675002226	-24.1909149199
Pd	-2.00653035248	-3.49244927728	-27.9219302658
Pd	-2.02746782928	-4.36436651167	-25.2039351944
Si	-0.0459381300766	-3.4005010236	-26.4742439982
Si	2.29056786186	-4.39458527784	-26.7097273981
Pd	0.513618569459	-5.50030343436	-25.4031711697
Pd	0.677956291606	-4.75120567534	28.0789302025
Si	6.4054330303	-2.64461876948	-25.1004745552
Pd	2.23962842302	-2.32053006065	-28.1225525869
Pd	4.6145473873	-3.53578093068	-26.5326268601
Pd	3.61128146046	-4.5740026222	27.6887517977
Pd	3.13325208583	-5.34189680659	-24.6203461788
Pd	5.15148201215	-6.28682585319	-27.0021420473
Pd	2.98003842315	-8.19775897205	-24.9969188601
Pd	4.18669250083	-2.85094842708	-23.9254832985
Si	9.66977362508	-5.81876508587	-24.6552327404
Pd	7.82506475519	-0.755796883059	-25.5103349427
Pd	8.15501529613	-3.15392042199	-26.8197374954
Pd	10.4402870132	-6.22714867651	-26.9158722152
Pd	5.80997417215	-4.89283462889	-24.549955363
Pd	6.41925514503	-4.39252617589	28.0534583613
Pd	7.78214920232	-5.83680611	-26.3323098917
Pd	13.0096856404	-3.52475278065	27.3965290158
Pd	11.0056103982	-4.04739413407	-25.4414060678
Pd	10.5512519474	-3.64788830871	-28.1047707742
Pd	12.6075709309	-2.20871068887	-26.4414154114
Pd	14.988489117	-3.50275993519	-25.6882724893
Pd	18.2881744859	-4.10236866864	28.2045869388
Pd	18.3180256801	-3.46456897602	-24.8051690869
Pd	15.0493702802	-2.46748342231	-22.6180881999
Pd	15.4120609545	-4.37740682565	-28.2326650791
Pd	16.2642018583	-4.68129355657	-23.6329647554
Pd	16.9881151366	-6.65699592823	27.9578611218
Si	19.2108416694	-6.30159228395	-27.728071367
Si	22.0718162026	-3.83385629543	-26.2125442274
Si	22.9580744894	-7.22055791386	-27.6098765398
Pd	20.2258539032	-5.59530533477	-25.6999710711
Pd	20.0314491586	-2.7188057527	-26.8990717538
Pd	23.2995667492	-4.91291847306	-24.4753149395
Si	26.2133560386	-3.79942956186	-27.2076899171
Pd	24.072438181	-5.06931014953	-27.1091529978
Pd	27.033987448	-5.70932214165	28.0993612139
Pd	26.292001846	-5.35304025614	-25.2064218891
Pd	-24.9079386154	-0.926005232616	-26.5910949709
Pd	-26.7526069269	1.35919527759	-26.7462246587
Pd	-23.2537203406	-2.28562143686	-24.4490842705
Pd	-27.5295581556	-1.29757649316	-26.2261482765
Si	-20.315250614	-2.21631021917	-28.0439532319
Si	-23.034889002	0.059943837692	-27.8712513559
Si	-22.7876036323	-0.19207176191	-25.5377734106
Si	-24.8979064071	2.79538456178	-27.5329039795
Pd	-22.4916774647	-2.29528087315	-27.0157504662
Pd	-20.6284865769	0.0706882236835	-26.9038244458
Pd	-20.8328694179	-0.709016793502	-24.2864898164
Si	-16.0420679031	2.30850857702	-27.4038091862
Pd	-18.1521757901	-0.871327940508	-25.1229172596
Pd	-16.3039700668	-0.193508148855	-27.3345753273
Pd	-16.5304192612	-2.28302975985	-22.4928768909
Pd	-19.4213588186	3.57422282697	-25.6368662925
Pd	-15.334341344	-1.39203253319	-24.9774332068
Pd	-18.1735106231	1.43248545438	-26.5069862648
Pd	-14.9988436219	1.3236542099	-25.3610271146
Si	-14.6474652239	-3.69243239892	-25.5033241592
Si	-14.0727466029	-0.951305906373	-27.1112317511
Pd	-11.0034064397	2.93509764063	-27.1219624335
Pd	-12.7544643803	-2.00382982559	-25.4134598538
Pd	-9.66582813073	1.70035909199	-24.8530015239
Pd	-12.3654180687	0.646046501849	-26.3910463408
Si	-5.92425574929	-0.371818993967	-27.7818954267
Si	-7.07175999389	2.13274237128	-24.729508308
Si	-9.255075384	1.32881961951	-27.8707195829
Pd	-10.0253191651	-0.809328504305	-26.7069673011
Pd	-7.67056671566	0.259314542864	-26.2275856993
Pd	-7.62727835601	-2.6338145389	-24.1798193901
Pd	-2.64004291085	1.74042693	-27.2956363984
Pd	-2.93823771153	-0.942979381262	-26.977255597
Si	1.77158776574	2.92535382479	-26.021085994
Si	0.965440237466	-0.401883648983	-24.3611271478
Pd	0.989088407942	1.91159346024	-28.1572178919
Pd	0.0794845888396	-1.01652283524	-26.9607953381
Pd	-1.94979038302	1.70516931757	-22.9141113507
Pd	-1.22240519101	0.366950301393	-25.1884341212
Si	4.97948349889	2.33718854305	-28.2171626288
Si	3.90203936681	-1.20732640951	-26.5497995898
Pd	7.41884160156	2.25024060624	-27.7163047054
Pd	2.01860514392	-2.39080733079	-25.3835107742
Pd	5.2296778786	-0.516421082504	-24.510367888
Pd	2.31897643311	0.555016495023	-26.0344089864
Pd	5.67544867561	0.399806828449	-26.929519101
Pd	4.90283583531	-1.97900211461	27.8751562586
Si	9.45172466794	0.983223021701	-28.1845814649
Pd	9.67423605926	1.26796610752	-25.8017276129
Pd	10.2189571627	-1.08270902821	-27.2063516209
Pd	10.1690106302	-1.7371343162	-24.7376396825
Pd	7.03081985365	1.87530531055	-24.9418409448
Pd	7.62524283125	-0.968768865033	-28.2750178746
Pd	12.2527504148	0.297653796346	-25.3646263019
Pd	11.8115067176	1.04687260162	-27.8499679792
Pd	14.8323589235	-0.829175394432	-25.2203289064
Pd	14.2259038347	1.41648263799	-26.8730842977
Pd	13.9655054643	1.76492520487	-23.974258286
Si	17.2653968429	-0.424308411067	-24.9747372683
Si	16.238568185	0.091978693167	-27.0852632085
Pd	18.6142354312	0.563142472338	-26.7940593953
Pd	20.1918288986	-1.63423801176	-21.9618485164
Pd	17.0987974671	-2.16627742562	-26.7162110004
Pd	18.6120318434	1.33687509726	-23.8731784588
Pd	19.5551741351	-1.05172726853	-24.72177499
Pd	24.39002281	-2.73441277579	-25.8079763895
Pd	23.797458498	-0.16770583117	-26.6245288463
Pd	21.1676853253	-0.61110987011	28.22376922
Pd	23.2056921005	2.13351880899	-24.9763315734
Pd	21.9787815658	-1.54267469301	-25.4339034019
Pd	21.0980150761	0.99322976918	-26.1485791261
Pd	22.8395440353	1.66990702601	-28.0910934157
Pd	26.3565643173	-0.298871894676	-25.460669577
Pd	27.4205476152	0.402355670634	-27.7339781923
Pd	25.4770561587	-1.56562162429	-28.1184135054
Pd	-28.2523253217	1.62759805381	-24.4322513402
Si	-27.7862242162	5.35887157815	-27.2051546377
Pd	-26.1907140179	3.92355396717	-25.7889548421
Pd	-24.4969264411	1.65454610752	-25.3906709598
Pd	27.8880165974	4.50621958479	-24.7476028422
Pd	-22.347438675	6.76911900804	-26.4450707034
Pd	-23.6644742999	6.59810694991	-23.8556703397
Pd	-21.7956640817	1.77898248578	-24.4934692526
Pd	-22.1609551345	4.40319529159	-25.0159287908
Pd	-18.6803263994	5.82829438304	-27.1449834244
Si	-17.7696164121	6.21667018739	-24.9337953747
Si	-17.1492000249	2.42743431858	-24.4209400613
Si	-20.0689320306	2.38621952389	-27.7693943608
Pd	-16.5125160117	4.27386597155	-25.9353637713
Pd	-16.656686141	7.66592291413	-26.4712263026
Pd	-14.2436018488	5.91354001442	-26.5906274265
Pd	-13.8118390247	3.33582850438	-26.6501315265
Pd	-8.84579353903	4.36014857401	27.6591899862
Pd	-10.6324329829	5.59848245063	-27.2285383319
Pd	-5.65693204634	3.94367815514	-25.73569073
Pd	-8.25589688618	3.21416904841	-26.600310387
Pd	-7.85700600088	6.0216247708	-26.7994148993
Pd	-6.80511987799	1.78963600828	27.9949552817
Si	-6.55702357308	4.31394319591	-28.0440669735
Si	-4.06686709604	5.28524792576	-24.3957199884
Pd	-2.94673359302	5.0486968261	-26.6286584678
Pd	-5.26002522371	6.23643375474	-27.3514406802
Pd	-3.56892612834	7.55546512231	-25.431620701
Si	-0.65621978989	5.64115698837	-26.3648380293
Pd	-0.698240408261	3.10917430505	-26.2504499896
Pd	1.07375309046	4.5981189953	-27.7473189107
Pd	0.800053352204	4.69917302451	-24.6356030261
Pd	4.32007868287	2.18609896566	-25.089930404
Pd	3.58562358042	3.89852974473	-27.0944108488
Pd	6.04062231892	4.21636364143	-26.1873398745
Pd	5.58516854492	4.60295802282	27.5495692873
Si	7.78926648052	4.65441996479	-27.8670956745
Pd	10.0211593451	3.42188581107	-27.8837310272
Pd	11.1952747931	6.13147281342	27.9154942885
Pd	8.65471329879	3.85425518514	-25.6479504469
Pd	9.09768620718	6.39480186205	-26.825630846
Si	11.2344372163	5.14080144222	-26.4253267879
Pd	11.7106247731	3.07411166143	-25.2255545463
Pd	13.4438676055	6.08869062325	-26.9624886535
Pd	15.9161888508	6.11495549262	-25.3041316598
Pd	14.5256540949	3.86573071238	-25.4852632
Si	16.7552738949	4.19262815969	-26.533590431
Pd	16.5353893832	1.96269359902	-25.4506849876
Pd	17.3060513062	6.25668562386	-27.8308361594
Pd	18.0839093639	4.71609991665	-24.5102786617
Pd	16.8143339012	2.24306611112	-28.1981650645
Pd	20.198620134	5.96984143422	-28.0201627787
Pd	18.9607787614	3.35171272247	-26.7613993651
Si	20.2677446025	5.25548833374	-25.6600433626
Si	22.7214498626	5.60593566531	28.1685134723
Pd	24.1303533559	3.97116020668	-27.3320435888
Pd	23.8943914291	7.13323068981	-23.6593204524
Pd	22.6013233699	4.76726711494	-24.6888446814
Pd	20.4403928498	3.0625945567	-24.5927321987
Pd	23.944241926	6.41519440955	-26.3127973944
Pd	21.5427804017	3.78131846702	-27.1325995723
Pd	25.47873234	1.88938888412	-26.6258105091
Pd	26.3807287019	5.52868502748	-26.946586863
Pd	25.274052633	4.048865987	-24.9431204747
Pd	-27.895880851	6.17212117807	-22.6840454709
Pd	27.8484973168	3.09433141422	-26.9467672648
Pd	26.3362153168	7.7215745687	-25.1045145624
Si	-27.1217445914	10.6544160203	-24.1715341588
Si	-25.8542378112	5.47861113335	-23.9142512148
Si	-24.313206307	8.29035473635	-27.2851698472
Pd	-27.5154306624	6.82831396055	-25.3703852148
Pd	-26.5689209371	11.8311070985	-26.242920038
Pd	-25.7678134134	8.95863130032	-25.3543439667
Si	-23.767957919	8.95752715026	-22.979685921
Pd	-24.3022023439	10.6488193016	-27.0073259642
Pd	-21.4432836432	7.99458344923	-23.1861593369
Pd	-19.9686912865	8.01766914365	-26.5725532697
Pd	-22.0571632429	9.27862282834	-27.7508374401
Pd	-20.1517652296	6.06524807932	-24.6209654522
Pd	-22.9939492128	9.08735600473	-25.2322708207
Pd	-16.2414417885	5.82644041082	28.1723294539
Pd	-15.2467354854	6.36579264301	-24.2452106
Pd	-15.90217433	9.52268158779	-24.4198558734
Pd	-18.1877923955	9.91498349038	-26.5758263166
Pd	-18.7006373411	8.40932213476	-24.2649015088
Si	-14.3634391413	8.30301957022	-25.8160040644
Pd	-12.0273426071	7.56280532573	-26.0255321537
Pd	-15.4892727233	9.94815927562	-27.3635981354
Si	-11.2381156442	7.69130160304	28.1667147726
Si	-8.98044515473	6.89193971613	27.7505941821
Si	-6.86020322533	11.1290441317	-27.1984679165
Pd	-9.31617309939	10.9477075802	-27.7342251218
Pd	-9.33801055409	8.32886403425	-26.9287743939
Pd	-4.69586833721	10.5221264112	-25.8429773604
Pd	-6.4824892995	8.70535870194	-26.6981898291
Pd	-6.96938160459	9.93496898752	27.2295440549
Pd	-3.46422493157	9.36143185109	-27.793070014
Pd	-1.28435086235	7.8530062264	-27.2047943448
Pd	3.64006711452	10.6139093279	-26.2740267362
Pd	-0.580248653567	7.56023157367	-24.7244888922
Pd	-1.86264922349	9.95181722459	-25.6903012376
Pd	0.554067095645	10.3142126989	-26.9076231328
Pd	1.4520094411	9.53468674792	-24.5460411336
Si	6.11704376288	10.5682373635	-26.3673846454
Pd	5.59368293182	9.4980497729	28.1364072029
Pd	4.21397794894	6.29273569678	-26.2760731825
Pd	5.84353482764	8.36199627805	-25.4424820773
Pd	6.53499359944	6.74622159398	-27.5744468049
Pd	7.02269633145	10.4704805161	-24.0679838039
Pd	8.72384423473	8.27538782875	-24.6819817357
Pd	10.1962321476	10.1105234423	-26.1888434984
Pd	11.2443860164	7.62387799387	-25.9491920091
Pd	7.89085524616	9.04322372796	-27.1054965038
Pd	11.0054470701	7.75520516791	-23.1430284249
Pd	14.7255117248	10.3455326555	-23.3530220473
Pd	12.1590554508	10.0781707058	-24.3925076659
Pd	13.8064964873	8.17976238539	-25.0979868049
Pd	15.1940372049	10.6583410357	-25.9901808034